
     Program PWSCF v.5.3.0 (svn rev. 11974) starts on 24Mar2016 at 11:26:30 

     This program is part of the open-source Quantum ESPRESSO suite
     for quantum simulation of materials; please cite
         "P. Giannozzi et al., J. Phys.:Condens. Matter 21 395502 (2009);
          URL http://www.quantum-espresso.org", 
     in publications or presentations arising from this work. More details at
     http://www.quantum-espresso.org/quote

     Parallel version (MPI), running on     8 processors
     R & G space division:  proc/nbgrp/npool/nimage =       8
     Waiting for input...
     Reading input from standard input
     Message from routine read_cards :
     DEPRECATED: no units specified in ATOMIC_POSITIONS card
     Message from routine read_cards :
     ATOMIC_POSITIONS: units set to alat

     Current dimensions of program PWSCF are:
     Max number of different atomic species (ntypx) = 10
     Max number of k-points (npk) =  40000
     Max angular momentum in pseudopotentials (lmaxx) =  3

     IMPORTANT: XC functional enforced from input :
     Exchange-correlation      = HSE ( 1  4 12  4 0 0)
     EXX-fraction              =        0.25
     Any further DFT definition will be discarded
     Please, verify this is what you really want


     Subspace diagonalization in iterative solution of the eigenvalue problem:
     a serial algorithm will be used

     EXX: setup a grid of 729 q-points centered on each k-point
     (k+q)-points:
   0.0000000   0.0000000   0.0000000         1    1
  -0.1111111   0.1111111  -0.1111111         2    1
  -0.2222222   0.2222222  -0.2222222         3    1
  -0.3333333   0.3333333  -0.3333333         4    1
  -0.4444444   0.4444444  -0.4444444         5    1
   0.4444444  -0.4444444   0.4444444         5   -1
   0.3333333  -0.3333333   0.3333333         4   -1
   0.2222222  -0.2222222   0.2222222         3   -1
   0.1111111  -0.1111111   0.1111111         2   -1
   0.1111111   0.1111111   0.1111111         2    3
   0.0000000   0.2222222   0.0000000         6    1
  -0.1111111   0.3333333  -0.1111111         7    1
  -0.2222222   0.4444444  -0.2222222         8    1
  -0.3333333   0.5555556  -0.3333333         9    1
   0.5555556  -0.3333333   0.5555556        10    1
   0.4444444  -0.2222222   0.4444444        11    1
   0.3333333  -0.1111111   0.3333333        12    1
   0.2222222  -0.0000000   0.2222222        13    1
   0.2222222   0.2222222   0.2222222         3    3
   0.1111111   0.3333333   0.1111111         7    3
   0.0000000   0.4444444   0.0000000        14    1
  -0.1111111   0.5555556  -0.1111111        15    1
  -0.2222222   0.6666667  -0.2222222        16    1
   0.6666667  -0.2222222   0.6666667        17    1
   0.5555556  -0.1111111   0.5555556        18    1
   0.4444444   0.0000000   0.4444444        19    1
   0.3333333   0.1111111   0.3333333        12   -3
   0.3333333   0.3333333   0.3333333         4    3
   0.2222222   0.4444444   0.2222222         8    3
   0.1111111   0.5555556   0.1111111        15    3
   0.0000000   0.6666667   0.0000000        20    1
  -0.1111111   0.7777778  -0.1111111        21    1
   0.7777778  -0.1111111   0.7777778        22    1
   0.6666667   0.0000000   0.6666667        23    1
   0.5555556   0.1111111   0.5555556        18   -3
   0.4444444   0.2222222   0.4444444        11   -3
   0.4444444   0.4444444   0.4444444         5    3
   0.3333333   0.5555556   0.3333333         9    3
   0.2222222   0.6666667   0.2222222        16    3
   0.1111111   0.7777778   0.1111111        21    3
   0.0000000   0.8888889   0.0000000        24    1
   0.8888889   0.0000000   0.8888889        25    1
   0.7777778   0.1111111   0.7777778        22   -3
   0.6666667   0.2222222   0.6666667        17   -3
   0.5555556   0.3333333   0.5555556        10   -3
  -0.4444444  -0.4444444  -0.4444444         5   -3
  -0.5555556  -0.3333333  -0.5555556        10    3
  -0.6666667  -0.2222222  -0.6666667        17    3
  -0.7777778  -0.1111111  -0.7777778        22    3
  -0.8888889   0.0000000  -0.8888889        25   -1
   0.0000000  -0.8888889   0.0000000        24   -1
  -0.1111111  -0.7777778  -0.1111111        21   -3
  -0.2222222  -0.6666667  -0.2222222        16   -3
  -0.3333333  -0.5555556  -0.3333333         9   -3
  -0.3333333  -0.3333333  -0.3333333         4   -3
  -0.4444444  -0.2222222  -0.4444444        11    3
  -0.5555556  -0.1111111  -0.5555556        18    3
  -0.6666667   0.0000000  -0.6666667        23   -1
  -0.7777778   0.1111111  -0.7777778        22   -1
   0.1111111  -0.7777778   0.1111111        21   -1
   0.0000000  -0.6666667   0.0000000        20   -1
  -0.1111111  -0.5555556  -0.1111111        15   -3
  -0.2222222  -0.4444444  -0.2222222         8   -3
  -0.2222222  -0.2222222  -0.2222222         3   -3
  -0.3333333  -0.1111111  -0.3333333        12    3
  -0.4444444   0.0000000  -0.4444444        19   -1
  -0.5555556   0.1111111  -0.5555556        18   -1
  -0.6666667   0.2222222  -0.6666667        17   -1
   0.2222222  -0.6666667   0.2222222        16   -1
   0.1111111  -0.5555556   0.1111111        15   -1
   0.0000000  -0.4444444   0.0000000        14   -1
  -0.1111111  -0.3333333  -0.1111111         7   -3
  -0.1111111  -0.1111111  -0.1111111         2   -3
  -0.2222222   0.0000000  -0.2222222        13   -1
  -0.3333333   0.1111111  -0.3333333        12   -1
  -0.4444444   0.2222222  -0.4444444        11   -1
  -0.5555556   0.3333333  -0.5555556        10   -1
   0.3333333  -0.5555556   0.3333333         9   -1
   0.2222222  -0.4444444   0.2222222         8   -1
   0.1111111  -0.3333333   0.1111111         7   -1
   0.0000000  -0.2222222   0.0000000         6   -1
  -0.1111111  -0.1111111   0.1111111         2    4
  -0.2222222   0.0000000   0.0000000         6   -9
  -0.3333333   0.1111111  -0.1111111         7   10
  -0.4444444   0.2222222  -0.2222222         8   10
  -0.5555556   0.3333333  -0.3333333         9   10
   0.3333333  -0.5555556   0.5555556        10   10
   0.2222222  -0.4444444   0.4444444        11   10
   0.1111111  -0.3333333   0.3333333        12   10
   0.0000000  -0.2222222   0.2222222        13   10
   0.0000000   0.0000000   0.2222222         6    5
  -0.1111111   0.1111111   0.1111111         2   -2
  -0.2222222   0.2222222   0.0000000        13    7
  -0.3333333   0.3333333  -0.1111111        12   -8
  -0.4444444   0.4444444  -0.2222222        11   -8
  -0.5555556   0.5555556  -0.3333333        10   -8
   0.3333333  -0.3333333   0.5555556         9   -8
   0.2222222  -0.2222222   0.4444444         8   -8
   0.1111111  -0.1111111   0.3333333         7   -8
   0.1111111   0.1111111   0.3333333         7    6
  -0.0000000   0.2222222   0.2222222        13    9
  -0.1111111   0.3333333   0.1111111         7   -2
  -0.2222222   0.4444444   0.0000000        26    1
  -0.3333333   0.5555556  -0.1111111        27    1
   0.5555556  -0.3333333   0.7777778        28    1
  -0.5555556   0.7777778  -0.3333333        28  -21
   0.3333333  -0.1111111   0.5555556        27  -21
   0.2222222   0.0000000   0.4444444        26  -21
   0.2222222   0.2222222   0.4444444         8    6
   0.1111111   0.3333333   0.3333333        12  -12
   0.0000000   0.4444444   0.2222222        26   17
  -0.1111111   0.5555556   0.1111111        15   -2
  -0.2222222   0.6666667   0.0000000        29    1
   0.6666667  -0.2222222   0.8888889        30    1
   0.5555556  -0.1111111   0.7777778        31    1
   0.4444444   0.0000000   0.6666667        32    1
   0.3333333   0.1111111   0.5555556        27   24
   0.3333333   0.3333333   0.5555556         9    6
   0.2222222   0.4444444   0.4444444        11  -12
   0.1111111   0.5555556   0.3333333        27   17
   0.0000000   0.6666667   0.2222222        29   17
  -0.1111111   0.7777778   0.1111111        21   -2
   0.7777778  -0.1111111   1.0000000        33    1
   0.6666667  -0.0000000   0.8888889        34    1
   0.5555556   0.1111111   0.7777778        31   -3
  -0.5555556  -0.7777778  -0.3333333        28   24
  -0.5555556  -0.5555556  -0.3333333        10    6
   0.3333333   0.5555556   0.5555556        10  -12
  -0.7777778  -0.3333333  -0.5555556        28   17
  -0.8888889  -0.2222222  -0.6666667        30   17
  -1.0000000  -0.1111111  -0.7777778        33   17
   0.8888889   0.0000000  -0.8888889        25   -2
   0.7777778   0.1111111   1.0000000        33   -3
   0.6666667   0.2222222   0.8888889        30   -3
   0.5555556   0.3333333   0.7777778        28   -3
  -0.4444444  -0.4444444  -0.2222222        11    6
  -0.5555556  -0.3333333  -0.3333333         9  -12
   0.3333333   0.7777778   0.5555556        28  -12
  -0.7777778  -0.1111111  -0.5555556        31   17
  -0.8888889  -0.0000000  -0.6666667        34   17
  -1.0000000   0.1111111  -0.7777778        33  -18
  -0.1111111  -0.7777778   0.1111111        21    4
  -0.2222222  -0.6666667   0.0000000        29   -3
  -0.3333333  -0.5555556  -0.1111111        27   -3
  -0.3333333  -0.3333333  -0.1111111        12    6
  -0.4444444  -0.2222222  -0.2222222         8  -12
  -0.5555556  -0.1111111  -0.3333333        27  -12
  -0.6666667   0.0000000  -0.4444444        32   17
  -0.7777778   0.1111111  -0.5555556        31  -18
  -0.8888889   0.2222222  -0.6666667        30  -18
   0.0000000  -0.6666667   0.2222222        29  -18
  -0.1111111  -0.5555556   0.1111111        15    4
  -0.2222222  -0.4444444   0.0000000        26   -3
  -0.2222222  -0.2222222   0.0000000        13   -5
  -0.3333333  -0.1111111  -0.1111111         7  -12
  -0.4444444   0.0000000  -0.2222222        26   10
  -0.5555556   0.1111111  -0.3333333        27   10
   0.3333333  -0.7777778   0.5555556        28   10
  -0.7777778   0.3333333  -0.5555556        28  -18
   0.1111111  -0.5555556   0.3333333        27  -18
   0.0000000  -0.4444444   0.2222222        26  -18
  -0.1111111  -0.3333333   0.1111111         7    4
  -0.2222222  -0.2222222   0.2222222         3    4
  -0.3333333  -0.1111111   0.1111111         7   11
  -0.4444444   0.0000000   0.0000000        14   -9
  -0.5555556   0.1111111  -0.1111111        15   10
  -0.6666667   0.2222222  -0.2222222        16   10
   0.2222222  -0.6666667   0.6666667        17   10
   0.1111111  -0.5555556   0.5555556        18   10
   0.0000000  -0.4444444   0.4444444        19   10
  -0.1111111  -0.3333333   0.3333333        12  -11
  -0.1111111  -0.1111111   0.3333333         7    5
  -0.2222222   0.0000000   0.2222222        13    2
  -0.3333333   0.1111111   0.1111111         7   -9
  -0.4444444   0.2222222   0.0000000        26   13
  -0.5555556   0.3333333  -0.1111111        27   13
   0.3333333  -0.5555556   0.7777778        28   13
  -0.7777778   0.5555556  -0.3333333        28   -8
   0.1111111  -0.3333333   0.5555556        27   -8
   0.0000000  -0.2222222   0.4444444        26    5
   0.0000000   0.0000000   0.4444444        14    5
  -0.1111111   0.1111111   0.3333333         7   -7
  -0.2222222   0.2222222   0.2222222         3   -2
  -0.3333333   0.3333333   0.1111111        12    7
  -0.4444444   0.4444444   0.0000000        19    7
  -0.5555556   0.5555556  -0.1111111        18   -8
  -0.6666667   0.6666667  -0.2222222        17   -8
   0.2222222  -0.2222222   0.6666667        16   -8
   0.1111111  -0.1111111   0.5555556        15   -8
   0.1111111   0.1111111   0.5555556        15    6
   0.0000000   0.2222222   0.4444444        26    6
  -0.1111111   0.3333333   0.3333333        12    9
  -0.2222222   0.4444444   0.2222222         8   -2
  -0.3333333   0.5555556   0.1111111        27   -2
  -0.4444444   0.6666667   0.0000000        32  -21
  -0.5555556   0.7777778  -0.1111111        31  -21
  -0.6666667   0.8888889  -0.2222222        30  -21
   0.2222222   0.0000000   0.6666667        29  -21
   0.2222222   0.2222222   0.6666667        16    6
   0.1111111   0.3333333   0.5555556        27    6
   0.0000000   0.4444444   0.4444444        19    9
  -0.1111111   0.5555556   0.3333333        27  -20
  -0.2222222   0.6666667   0.2222222        16   -2
   0.6666667  -0.2222222  -0.8888889        30   -2
   0.5555556  -0.1111111   1.0000000        35    1
  -0.5555556   1.0000000  -0.1111111        35  -21
  -0.6666667  -0.8888889  -0.2222222        30   24
  -0.6666667  -0.6666667  -0.2222222        17    6
  -0.7777778  -0.5555556  -0.3333333        28    6
   0.1111111   0.5555556   0.5555556        18  -12
   0.0000000   0.6666667   0.4444444        32    9
   0.8888889  -0.2222222  -0.6666667        30  -20
   0.7777778  -0.1111111  -0.7777778        22   -2
   0.6666667  -0.0000000  -0.8888889        34   -2
   0.5555556   0.1111111   1.0000000        35   -3
  -0.5555556  -0.7777778  -0.1111111        31   24
  -0.5555556  -0.5555556  -0.1111111        18    6
   0.3333333   0.5555556   0.7777778        28  -15
   0.2222222   0.6666667   0.6666667        17  -12
   0.1111111   0.7777778   0.5555556        31  -12
  -1.0000000  -0.1111111  -0.5555556        35   17
   0.8888889   0.0000000  -0.6666667        34   19
   0.7777778   0.1111111  -0.7777778        22    4
   0.6666667   0.2222222  -0.8888889        30    4
  -0.4444444  -0.6666667   0.0000000        32  -22
  -0.4444444  -0.4444444   0.0000000        19   -5
  -0.5555556  -0.3333333  -0.1111111        27  -15
  -0.6666667  -0.2222222  -0.2222222        16  -12
   0.2222222   0.8888889   0.6666667        30  -12
   0.1111111  -1.0000000   0.5555556        35   10
  -1.0000000   0.1111111  -0.5555556        35  -18
   0.8888889   0.2222222  -0.6666667        30   19
  -0.2222222  -0.6666667   0.2222222        16    4
  -0.3333333  -0.5555556   0.1111111        27    4
  -0.3333333  -0.3333333   0.1111111        12   -5
  -0.4444444  -0.2222222   0.0000000        26  -15
  -0.5555556  -0.1111111  -0.1111111        15  -12
  -0.6666667   0.0000000  -0.2222222        29   10
   0.2222222  -0.8888889   0.6666667        30   10
   0.1111111  -0.7777778   0.5555556        31   10
   0.0000000  -0.6666667   0.4444444        32   10
  -0.1111111  -0.5555556   0.3333333        27   19
  -0.2222222  -0.4444444   0.2222222         8    4
  -0.3333333  -0.3333333   0.3333333         4    4
  -0.4444444  -0.2222222   0.2222222         8   11
  -0.5555556  -0.1111111   0.1111111        15   11
  -0.6666667   0.0000000   0.0000000        20   -9
  -0.7777778   0.1111111  -0.1111111        21   10
   0.1111111  -0.7777778   0.7777778        22   10
   0.0000000  -0.6666667   0.6666667        23   10
  -0.1111111  -0.5555556   0.5555556        18  -11
  -0.2222222  -0.4444444   0.4444444        11  -11
  -0.2222222  -0.2222222   0.4444444         8    5
  -0.3333333  -0.1111111   0.3333333        12   -4
  -0.4444444   0.0000000   0.2222222        26   -9
  -0.5555556   0.1111111   0.1111111        15   -9
  -0.6666667   0.2222222   0.0000000        29   13
   0.2222222  -0.6666667   0.8888889        30   13
   0.1111111  -0.5555556   0.7777778        31   13
   0.0000000  -0.4444444   0.6666667        32   13
  -0.1111111  -0.3333333   0.5555556        27    5
  -0.1111111  -0.1111111   0.5555556        15    5
  -0.2222222   0.0000000   0.4444444        26   22
  -0.3333333   0.1111111   0.3333333        12    2
  -0.4444444   0.2222222   0.2222222         8   -9
  -0.5555556   0.3333333   0.1111111        27  -14
  -0.6666667   0.4444444   0.0000000        32    7
  -0.7777778   0.5555556  -0.1111111        31   -8
  -0.8888889   0.6666667  -0.2222222        30   -8
   0.0000000  -0.2222222   0.6666667        29    5
   0.0000000   0.0000000   0.6666667        20    5
  -0.1111111   0.1111111   0.5555556        15   -7
  -0.2222222   0.2222222   0.4444444         8   -7
  -0.3333333   0.3333333   0.3333333         4   -2
  -0.4444444   0.4444444   0.2222222        11    7
  -0.5555556   0.5555556   0.1111111        18    7
  -0.6666667   0.6666667   0.0000000        23    7
  -0.7777778   0.7777778  -0.1111111        22   -8
   0.1111111  -0.1111111   0.7777778        21   -8
   0.1111111   0.1111111   0.7777778        21    6
   0.0000000   0.2222222   0.6666667        29    6
  -0.1111111   0.3333333   0.5555556        27   -7
  -0.2222222   0.4444444   0.4444444        11    9
  -0.3333333   0.5555556   0.3333333         9   -2
   0.5555556  -0.3333333  -0.7777778        28   -2
  -0.5555556   0.7777778   0.1111111        31   23
  -0.6666667   0.8888889  -0.0000000        34  -21
  -0.7777778   1.0000000  -0.1111111        33  -21
  -0.7777778  -0.7777778  -0.1111111        22    6
  -0.8888889  -0.6666667  -0.2222222        30    6
   0.0000000   0.4444444   0.6666667        32   14
  -0.1111111   0.5555556   0.5555556        18    9
   0.7777778  -0.3333333  -0.5555556        28  -20
   0.6666667  -0.2222222  -0.6666667        17   -2
   0.5555556  -0.1111111  -0.7777778        31   -2
  -0.5555556  -1.0000000   0.1111111        35  -22
  -0.6666667  -0.8888889   0.0000000        34  -22
  -0.6666667  -0.6666667   0.0000000        23   -5
  -0.7777778  -0.5555556  -0.1111111        31    6
   0.1111111   0.5555556   0.7777778        31  -15
   0.0000000   0.6666667   0.6666667        23    9
  -0.1111111   0.7777778   0.5555556        31    9
   0.7777778  -0.1111111  -0.5555556        31  -20
   0.6666667   0.0000000  -0.6666667        23   -2
   0.5555556   0.1111111  -0.7777778        31    4
  -0.5555556  -0.7777778   0.1111111        31  -22
  -0.5555556  -0.5555556   0.1111111        18   -5
  -0.6666667  -0.4444444   0.0000000        32   -5
   0.2222222   0.6666667   0.8888889        30  -15
   0.1111111   0.7777778   0.7777778        22  -12
  -0.0000000   0.8888889   0.6666667        34    9
  -0.1111111   1.0000000   0.5555556        35    9
   0.7777778   0.1111111  -0.5555556        31   19
   0.6666667   0.2222222  -0.6666667        17    4
   0.5555556   0.3333333  -0.7777778        28    4
  -0.4444444  -0.4444444   0.2222222        11   -5
  -0.5555556  -0.3333333   0.1111111        27   16
  -0.6666667  -0.2222222   0.0000000        29  -15
  -0.7777778  -0.1111111  -0.1111111        21  -12
   0.1111111  -1.0000000   0.7777778        33   10
   0.0000000  -0.8888889   0.6666667        34   10
  -0.1111111  -0.7777778   0.5555556        31  -11
   0.7777778   0.3333333  -0.5555556        28   19
  -0.3333333  -0.5555556   0.3333333         9    4
  -0.4444444  -0.4444444   0.4444444         5    4
  -0.5555556  -0.3333333   0.3333333         9   11
  -0.6666667  -0.2222222   0.2222222        16   11
  -0.7777778  -0.1111111   0.1111111        21   11
  -0.8888889   0.0000000   0.0000000        24   -9
   0.0000000  -0.8888889   0.8888889        25   10
  -0.1111111  -0.7777778   0.7777778        22  -11
  -0.2222222  -0.6666667   0.6666667        17  -11
  -0.3333333  -0.5555556   0.5555556        10  -11
  -0.3333333  -0.3333333   0.5555556         9    5
  -0.4444444  -0.2222222   0.4444444        11   -4
  -0.5555556  -0.1111111   0.3333333        27   11
  -0.6666667   0.0000000   0.2222222        29   -9
  -0.7777778   0.1111111   0.1111111        21   -9
   0.1111111  -0.7777778   1.0000000        33   13
   0.0000000  -0.6666667   0.8888889        34   13
  -0.1111111  -0.5555556   0.7777778        31  -16
   0.7777778   0.5555556  -0.3333333        28    5
  -0.2222222  -0.2222222   0.6666667        16    5
  -0.3333333  -0.1111111   0.5555556        27   22
  -0.4444444   0.0000000   0.4444444        19    2
  -0.5555556   0.1111111   0.3333333        27   -9
  -0.6666667   0.2222222   0.2222222        16   -9
   0.2222222  -0.6666667  -0.8888889        30  -14
   0.1111111  -0.5555556   1.0000000        35   13
   1.0000000   0.5555556  -0.1111111        35    5
   0.8888889   0.6666667  -0.2222222        30    5
  -0.1111111  -0.1111111   0.7777778        21    5
  -0.2222222   0.0000000   0.6666667        29   22
  -0.3333333   0.1111111   0.5555556        27  -23
  -0.4444444   0.2222222   0.4444444        11    2
  -0.5555556   0.3333333   0.3333333         9   -9
   0.3333333  -0.5555556  -0.7777778        28  -14
  -0.7777778   0.5555556   0.1111111        31    7
  -0.8888889   0.6666667   0.0000000        34    7
   1.0000000   0.7777778  -0.1111111        33    5
   0.0000000   0.0000000   0.8888889        24    5
  -0.1111111   0.1111111   0.7777778        21   -7
  -0.2222222   0.2222222   0.6666667        16   -7
  -0.3333333   0.3333333   0.5555556         9   -7
  -0.4444444   0.4444444   0.4444444         5   -2
  -0.5555556   0.5555556   0.3333333        10    7
  -0.6666667   0.6666667   0.2222222        17    7
  -0.7777778   0.7777778   0.1111111        22    7
  -0.8888889   0.8888889   0.0000000        25    7
  -0.8888889  -0.8888889   0.0000000        25   -5
  -1.0000000  -0.7777778  -0.1111111        33    6
   0.8888889  -0.6666667  -0.2222222        30   -7
   0.7777778  -0.5555556  -0.3333333        28   -7
  -0.3333333   0.5555556   0.5555556        10    9
   0.5555556  -0.3333333  -0.5555556        10   -2
  -0.5555556   0.7777778   0.3333333        28   23
  -0.6666667   0.8888889   0.2222222        30   23
  -0.7777778  -1.0000000   0.1111111        33  -22
  -0.7777778  -0.7777778   0.1111111        22   -5
  -0.8888889  -0.6666667   0.0000000        34   -5
  -1.0000000  -0.5555556  -0.1111111        35    6
  -0.1111111   0.5555556   0.7777778        31   14
  -0.2222222   0.6666667   0.6666667        17    9
  -0.3333333   0.7777778   0.5555556        28    9
   0.5555556  -0.1111111  -0.5555556        18   -2
   0.4444444   0.0000000  -0.6666667        32   -2
  -0.6666667  -0.8888889   0.2222222        30  -22
  -0.6666667  -0.6666667   0.2222222        17   -5
  -0.7777778  -0.5555556   0.1111111        31   -5
   0.1111111   0.5555556   1.0000000        35  -15
  -0.0000000   0.6666667   0.8888889        34   14
  -0.1111111   0.7777778   0.7777778        22    9
  -0.2222222   0.8888889   0.6666667        30    9
   0.6666667   0.0000000  -0.4444444        32   19
   0.5555556   0.1111111  -0.5555556        18    4
  -0.5555556  -0.7777778   0.3333333        28  -22
  -0.5555556  -0.5555556   0.3333333        10   -5
   0.3333333   0.5555556  -0.7777778        28   16
   0.2222222   0.6666667  -0.8888889        30   16
   0.1111111   0.7777778   1.0000000        33  -15
   0.0000000   0.8888889   0.8888889        25    9
  -0.1111111   1.0000000   0.7777778        33    9
  -0.2222222  -0.8888889   0.6666667        30  -11
  -0.3333333  -0.7777778   0.5555556        28  -11
   0.5555556   0.3333333  -0.5555556        10    4
   0.4444444   0.4444444  -0.4444444         5   -4
   0.3333333   0.5555556  -0.5555556        10   11
   0.2222222   0.6666667  -0.6666667        17   11
   0.1111111   0.7777778  -0.7777778        22   11
   0.0000000   0.8888889  -0.8888889        25  -10
   0.8888889   0.0000000   0.0000000        24    9
   0.7777778   0.1111111  -0.1111111        21  -11
   0.6666667   0.2222222  -0.2222222        16  -11
   0.5555556   0.3333333  -0.3333333         9  -11
   0.5555556   0.5555556  -0.3333333        10    5
  -0.5555556  -0.3333333   0.5555556        10   -4
   0.3333333   0.7777778  -0.5555556        28   11
   0.2222222   0.8888889  -0.6666667        30   11
   0.1111111  -1.0000000  -0.7777778        33   -9
   0.0000000  -0.8888889  -0.8888889        25   -9
  -0.1111111  -0.7777778  -1.0000000        33   15
  -0.2222222  -0.6666667   0.8888889        30  -16
  -0.3333333  -0.5555556   0.7777778        28  -16
   0.6666667   0.6666667  -0.2222222        17    5
   0.5555556   0.7777778  -0.3333333        28   22
  -0.5555556  -0.1111111   0.5555556        18   -4
  -0.6666667  -0.0000000   0.4444444        32  -19
   0.2222222  -0.8888889  -0.6666667        30   -9
   0.1111111  -0.7777778  -0.7777778        22   -9
   0.0000000  -0.6666667  -0.8888889        34  -14
  -0.1111111  -0.5555556  -1.0000000        35   15
   0.7777778   0.5555556  -0.1111111        31    5
   0.7777778   0.7777778  -0.1111111        22    5
   0.6666667   0.8888889  -0.2222222        30   22
  -0.4444444  -0.0000000   0.6666667        32    2
  -0.5555556   0.1111111   0.5555556        18    2
   0.3333333  -0.7777778  -0.5555556        28   -9
   0.2222222  -0.6666667  -0.6666667        17   -9
   0.1111111  -0.5555556  -0.7777778        31  -14
   1.0000000   0.5555556   0.1111111        35   -6
   0.8888889   0.6666667  -0.0000000        34    5
   0.8888889   0.8888889   0.0000000        25    5
   0.7777778   1.0000000  -0.1111111        33   22
   0.6666667  -0.8888889  -0.2222222        30  -23
   0.5555556  -0.7777778  -0.3333333        28  -23
  -0.5555556   0.3333333   0.5555556        10    2
   0.3333333  -0.5555556  -0.5555556        10   -9
  -0.7777778   0.5555556   0.3333333        28    7
  -0.8888889   0.6666667   0.2222222        30    7
   1.0000000   0.7777778   0.1111111        33   -6
   0.0000000   0.0000000  -0.8888889        24   -5
   0.8888889  -0.8888889   0.0000000        25   -7
   0.7777778  -0.7777778  -0.1111111        22   -7
   0.6666667  -0.6666667  -0.2222222        17   -7
   0.5555556  -0.5555556  -0.3333333        10   -7
   0.4444444  -0.4444444  -0.4444444         5    2
   0.3333333  -0.3333333  -0.5555556         9    7
   0.2222222  -0.2222222  -0.6666667        16    7
   0.1111111  -0.1111111  -0.7777778        21    7
   0.1111111   0.1111111  -0.7777778        21   -5
  -1.0000000  -0.7777778   0.1111111        33   -5
   0.8888889  -0.6666667  -0.0000000        34   -7
   0.7777778  -0.5555556  -0.1111111        31   -7
  -0.3333333   0.5555556   0.7777778        28   14
   0.5555556  -0.3333333  -0.3333333         9    9
   0.4444444  -0.2222222  -0.4444444        11   -2
   0.3333333  -0.1111111  -0.5555556        27   23
   0.2222222   0.0000000  -0.6666667        29  -22
   0.2222222   0.2222222  -0.6666667        16   -5
  -0.8888889  -0.6666667   0.2222222        30   -5
  -1.0000000  -0.5555556   0.1111111        35   -5
  -0.1111111   0.5555556  -1.0000000        35  -13
  -0.2222222   0.6666667   0.8888889        30   14
   0.6666667  -0.2222222  -0.2222222        16    9
   0.5555556  -0.1111111  -0.3333333        27    9
   0.4444444   0.0000000  -0.4444444        19   -2
   0.3333333   0.1111111  -0.5555556        27  -22
   0.3333333   0.3333333  -0.5555556         9   -5
  -0.7777778  -0.5555556   0.3333333        28   -5
   0.1111111   0.5555556  -0.7777778        31   16
  -0.0000000   0.6666667  -0.8888889        34  -13
  -0.1111111   0.7777778  -1.0000000        33  -13
   0.7777778  -0.1111111  -0.1111111        21    9
   0.6666667   0.0000000  -0.2222222        29    9
   0.5555556   0.1111111  -0.3333333        27  -11
   0.4444444   0.2222222  -0.4444444        11    4
   0.3333333   0.3333333  -0.3333333         4   -4
   0.2222222   0.4444444  -0.4444444        11   11
   0.1111111   0.5555556  -0.5555556        18   11
   0.0000000   0.6666667  -0.6666667        23  -10
  -0.1111111   0.7777778  -0.7777778        22  -10
   0.7777778  -0.1111111   0.1111111        21  -10
   0.6666667   0.0000000   0.0000000        20    9
   0.5555556   0.1111111  -0.1111111        15  -11
   0.4444444   0.2222222  -0.2222222         8  -11
   0.4444444   0.4444444  -0.2222222        11    5
   0.3333333   0.5555556  -0.3333333         9   -4
  -0.7777778  -0.3333333   0.5555556        28  -19
   0.1111111   0.7777778  -0.5555556        31   11
  -0.0000000   0.8888889  -0.6666667        34  -10
  -0.1111111   1.0000000  -0.7777778        33  -10
   0.7777778   0.1111111   0.1111111        21   12
   0.6666667   0.2222222   0.0000000        29   15
   0.5555556   0.3333333  -0.1111111        27  -16
   0.5555556   0.5555556  -0.1111111        18    5
  -0.5555556  -0.3333333   0.7777778        28   -4
  -0.6666667  -0.2222222   0.6666667        17   -4
  -0.7777778  -0.1111111   0.5555556        31  -19
   0.1111111  -1.0000000  -0.5555556        35   -9
   0.0000000  -0.8888889  -0.6666667        34   -9
  -0.1111111  -0.7777778  -0.7777778        22   12
  -0.2222222  -0.6666667  -0.8888889        30   15
   0.6666667   0.4444444   0.0000000        32    5
   0.6666667   0.6666667   0.0000000        23    5
   0.5555556   0.7777778  -0.1111111        31   22
  -0.5555556  -0.1111111   0.7777778        31   -4
  -0.6666667   0.0000000   0.6666667        23    2
  -0.7777778   0.1111111   0.5555556        31   20
   0.1111111  -0.7777778  -0.5555556        31   -9
   0.0000000  -0.6666667  -0.6666667        23   -9
  -0.1111111  -0.5555556  -0.7777778        31   15
   0.7777778   0.5555556   0.1111111        31   -6
   0.7777778   0.7777778   0.1111111        22   -6
   0.6666667   0.8888889  -0.0000000        34   22
   0.5555556   1.0000000  -0.1111111        35   22
  -0.5555556   0.1111111   0.7777778        31    2
  -0.6666667   0.2222222   0.6666667        17    2
  -0.7777778   0.3333333   0.5555556        28   20
   0.1111111  -0.5555556  -0.5555556        18   -9
  -0.0000000  -0.4444444  -0.6666667        32  -14
   0.8888889   0.6666667   0.2222222        30   -6
  -0.1111111  -0.1111111  -0.7777778        21   -6
   0.7777778  -1.0000000   0.1111111        33   21
   0.6666667  -0.8888889   0.0000000        34   21
   0.5555556  -0.7777778  -0.1111111        31  -23
  -0.5555556   0.3333333   0.7777778        28    2
   0.3333333  -0.5555556  -0.3333333         9    2
   0.2222222  -0.4444444  -0.4444444        11   -9
   0.1111111  -0.3333333  -0.5555556        27    7
   0.0000000  -0.2222222  -0.6666667        29   -6
   0.0000000   0.0000000  -0.6666667        20   -5
  -0.1111111   0.1111111  -0.7777778        21    8
   0.7777778  -0.7777778   0.1111111        22    8
   0.6666667  -0.6666667   0.0000000        23   -7
   0.5555556  -0.5555556  -0.1111111        18   -7
   0.4444444  -0.4444444  -0.2222222        11   -7
   0.3333333  -0.3333333  -0.3333333         4    2
   0.2222222  -0.2222222  -0.4444444         8    7
   0.1111111  -0.1111111  -0.5555556        15    7
   0.1111111   0.1111111  -0.5555556        15   -5
   0.0000000   0.2222222  -0.6666667        29   -5
   0.8888889  -0.6666667   0.2222222        30    8
   0.7777778  -0.5555556   0.1111111        31    8
   0.6666667  -0.4444444   0.0000000        32   -7
   0.5555556  -0.3333333  -0.1111111        27   14
   0.4444444  -0.2222222  -0.2222222         8    9
   0.3333333  -0.1111111  -0.3333333        12   -2
   0.2222222   0.0000000  -0.4444444        26  -22
   0.2222222   0.2222222  -0.4444444         8   -5
   0.1111111   0.3333333  -0.5555556        27   -5
   0.0000000   0.4444444  -0.6666667        32  -13
  -0.1111111   0.5555556  -0.7777778        31  -13
  -0.2222222   0.6666667  -0.8888889        30  -13
   0.6666667  -0.2222222   0.0000000        29  -13
   0.5555556  -0.1111111  -0.1111111        15    9
   0.4444444   0.0000000  -0.2222222        26    9
   0.3333333   0.1111111  -0.3333333        12    4
   0.2222222   0.2222222  -0.2222222         3   -4
   0.1111111   0.3333333  -0.3333333        12   11
   0.0000000   0.4444444  -0.4444444        19  -10
  -0.1111111   0.5555556  -0.5555556        18  -10
  -0.2222222   0.6666667  -0.6666667        17  -10
   0.6666667  -0.2222222   0.2222222        16  -10
   0.5555556  -0.1111111   0.1111111        15  -10
   0.4444444   0.0000000   0.0000000        14    9
   0.3333333   0.1111111  -0.1111111         7  -11
   0.3333333   0.3333333  -0.1111111        12    5
   0.2222222   0.4444444  -0.2222222         8   -4
   0.1111111   0.5555556  -0.3333333        27  -19
   0.0000000   0.6666667  -0.4444444        32  -10
  -0.1111111   0.7777778  -0.5555556        31  -10
  -0.2222222   0.8888889  -0.6666667        30  -10
   0.6666667   0.0000000   0.2222222        29  -10
   0.5555556   0.1111111   0.1111111        15   12
   0.4444444   0.2222222   0.0000000        26   15
   0.4444444   0.4444444   0.0000000        19    5
   0.3333333   0.5555556  -0.1111111        27   -4
   0.2222222   0.6666667  -0.2222222        16   -4
  -0.8888889  -0.2222222   0.6666667        30  -19
   1.0000000  -0.1111111   0.5555556        35   18
  -0.1111111   1.0000000  -0.5555556        35  -10
  -0.2222222  -0.8888889  -0.6666667        30   12
   0.6666667   0.2222222   0.2222222        16   12
   0.5555556   0.3333333   0.1111111        27   15
   0.5555556   0.5555556   0.1111111        18   -6
   0.4444444   0.6666667   0.0000000        32   22
  -0.6666667  -0.2222222   0.8888889        30   -4
  -0.7777778  -0.1111111   0.7777778        22   -4
  -0.8888889  -0.0000000   0.6666667        34  -19
   1.0000000   0.1111111   0.5555556        35  -17
  -0.1111111  -0.7777778  -0.5555556        31   12
  -0.2222222  -0.6666667  -0.6666667        17   12
  -0.3333333  -0.5555556  -0.7777778        28   15
   0.6666667   0.6666667   0.2222222        17   -6
   0.5555556   0.7777778   0.1111111        31  -24
  -0.5555556  -0.1111111  -1.0000000        35    3
  -0.6666667   0.0000000   0.8888889        34    2
  -0.7777778   0.1111111   0.7777778        22    2
  -0.8888889   0.2222222   0.6666667        30   20
  -0.0000000  -0.6666667  -0.4444444        32   -9
  -0.1111111  -0.5555556  -0.5555556        18   12
   0.7777778   0.5555556   0.3333333        28   -6
  -0.2222222  -0.2222222  -0.6666667        16   -6
   0.6666667   0.8888889   0.2222222        30  -24
   0.5555556  -1.0000000   0.1111111        35   21
  -0.5555556   0.1111111  -1.0000000        35   -1
  -0.6666667   0.2222222   0.8888889        30    2
   0.2222222  -0.6666667  -0.2222222        16    2
   0.1111111  -0.5555556  -0.3333333        27   20
   0.0000000  -0.4444444  -0.4444444        19   -9
  -0.1111111  -0.3333333  -0.5555556        27   -6
  -0.1111111  -0.1111111  -0.5555556        15   -6
  -0.2222222   0.0000000  -0.6666667        29   21
   0.6666667  -0.8888889   0.2222222        30   21
   0.5555556  -0.7777778   0.1111111        31   21
   0.4444444  -0.6666667   0.0000000        32   21
   0.3333333  -0.5555556  -0.1111111        27    2
   0.2222222  -0.4444444  -0.2222222         8    2
   0.1111111  -0.3333333  -0.3333333        12   -9
   0.0000000  -0.2222222  -0.4444444        26   -6
   0.0000000   0.0000000  -0.4444444        14   -5
  -0.1111111   0.1111111  -0.5555556        15    8
  -0.2222222   0.2222222  -0.6666667        16    8
   0.6666667  -0.6666667   0.2222222        17    8
   0.5555556  -0.5555556   0.1111111        18    8
   0.4444444  -0.4444444   0.0000000        19   -7
   0.3333333  -0.3333333  -0.1111111        12   -7
   0.2222222  -0.2222222  -0.2222222         3    2
   0.1111111  -0.1111111  -0.3333333         7    7
   0.1111111   0.1111111  -0.3333333         7   -5
   0.0000000   0.2222222  -0.4444444        26   -5
  -0.1111111   0.3333333  -0.5555556        27    8
   0.7777778  -0.5555556   0.3333333        28    8
  -0.3333333   0.5555556  -0.7777778        28  -13
   0.5555556  -0.3333333   0.1111111        27  -13
   0.4444444  -0.2222222   0.0000000        26  -13
   0.3333333  -0.1111111  -0.1111111         7    9
   0.2222222  -0.0000000  -0.2222222        13   -2
   0.1111111   0.1111111  -0.1111111         2   -4
  -0.0000000   0.2222222  -0.2222222        13  -10
  -0.1111111   0.3333333  -0.3333333        12  -10
  -0.2222222   0.4444444  -0.4444444        11  -10
  -0.3333333   0.5555556  -0.5555556        10  -10
   0.5555556  -0.3333333   0.3333333         9  -10
   0.4444444  -0.2222222   0.2222222         8  -10
   0.3333333  -0.1111111   0.1111111         7  -10
   0.2222222   0.0000000   0.0000000         6    9
   0.2222222   0.2222222  -0.0000000        13    5
   0.1111111   0.3333333  -0.1111111         7   -4
   0.0000000   0.4444444  -0.2222222        26   18
  -0.1111111   0.5555556  -0.3333333        27   18
   0.7777778  -0.3333333   0.5555556        28   18
  -0.3333333   0.7777778  -0.5555556        28  -10
   0.5555556  -0.1111111   0.3333333        27  -10
   0.4444444   0.0000000   0.2222222        26  -10
   0.3333333   0.1111111   0.1111111         7   12
   0.3333333   0.3333333   0.1111111        12   -6
   0.2222222   0.4444444   0.0000000        26    3
   0.1111111   0.5555556  -0.1111111        15   -4
   0.0000000   0.6666667  -0.2222222        29   18
   0.8888889  -0.2222222   0.6666667        30   18
   0.7777778  -0.1111111   0.5555556        31   18
   0.6666667   0.0000000   0.4444444        32  -17
   0.5555556   0.1111111   0.3333333        27   12
   0.4444444   0.2222222   0.2222222         8   12
   0.4444444   0.4444444   0.2222222        11   -6
   0.3333333   0.5555556   0.1111111        27    3
   0.2222222   0.6666667   0.0000000        29    3
   0.1111111   0.7777778  -0.1111111        21   -4
   1.0000000  -0.1111111   0.7777778        33   18
   0.8888889   0.0000000   0.6666667        34  -17
   0.7777778   0.1111111   0.5555556        31  -17
  -0.3333333  -0.7777778  -0.5555556        28   12
   0.5555556   0.3333333   0.3333333         9   12
   0.5555556   0.5555556   0.3333333        10   -6
  -0.5555556  -0.3333333  -0.7777778        28    3
  -0.6666667  -0.2222222  -0.8888889        30    3
  -0.7777778  -0.1111111  -1.0000000        33    3
  -0.8888889   0.0000000   0.8888889        25    2
   1.0000000   0.1111111   0.7777778        33  -17
   0.8888889   0.2222222   0.6666667        30  -17
   0.7777778   0.3333333   0.5555556        28  -17
  -0.3333333  -0.5555556  -0.5555556        10   12
  -0.3333333  -0.3333333  -0.5555556         9   -6
   0.5555556   0.7777778   0.3333333        28  -24
  -0.5555556  -0.1111111  -0.7777778        31    3
  -0.6666667   0.0000000  -0.8888889        34   -1
  -0.7777778   0.1111111  -1.0000000        33   -1
   0.1111111  -0.7777778  -0.1111111        21    2
   0.0000000  -0.6666667  -0.2222222        29  -17
  -0.1111111  -0.5555556  -0.3333333        27  -17
  -0.2222222  -0.4444444  -0.4444444        11   12
  -0.2222222  -0.2222222  -0.4444444         8   -6
  -0.3333333  -0.1111111  -0.5555556        27  -24
  -0.4444444   0.0000000  -0.6666667        32   -1
  -0.5555556   0.1111111  -0.7777778        31   -1
  -0.6666667   0.2222222  -0.8888889        30   -1
   0.2222222  -0.6666667   0.0000000        29   -1
   0.1111111  -0.5555556  -0.1111111        15    2
   0.0000000  -0.4444444  -0.2222222        26  -17
  -0.1111111  -0.3333333  -0.3333333        12   12
  -0.1111111  -0.1111111  -0.3333333         7   -6
  -0.2222222   0.0000000  -0.4444444        26   21
  -0.3333333   0.1111111  -0.5555556        27   21
   0.5555556  -0.7777778   0.3333333        28   21
  -0.5555556   0.3333333  -0.7777778        28   -1
   0.3333333  -0.5555556   0.1111111        27   -1
   0.2222222  -0.4444444   0.0000000        26   -1
   0.1111111  -0.3333333  -0.1111111         7    2
   0.0000000  -0.2222222  -0.2222222        13   -9
   0.0000000   0.0000000  -0.2222222         6   -5
  -0.1111111   0.1111111  -0.3333333         7    8
  -0.2222222   0.2222222  -0.4444444         8    8
  -0.3333333   0.3333333  -0.5555556         9    8
   0.5555556  -0.5555556   0.3333333        10    8
   0.4444444  -0.4444444   0.2222222        11    8
   0.3333333  -0.3333333   0.1111111        12    8
   0.2222222  -0.2222222  -0.0000000        13   -7
   0.1111111  -0.1111111  -0.1111111         2    2

     Parallelization info
     --------------------
     sticks:   dense  smooth     PW     G-vecs:    dense   smooth      PW
     Min         196     196     56                 5143     5143     796
     Max         197     197     57                 5145     5145     797
     Sum        1573    1573    451                41151    41151    6375



     bravais-lattice index     =            2
     lattice parameter (alat)  =      10.6836  a.u.
     unit-cell volume          =     304.8518 (a.u.)^3
     number of atoms/cell      =            2
     number of atomic types    =            2
     number of electrons       =         8.00
     number of Kohn-Sham states=            9
     kinetic-energy cutoff     =     100.0000  Ry
     charge density cutoff     =     400.0000  Ry
     cutoff for Fock operator  =     400.0000  Ry
     convergence threshold     =      1.0E-06
     mixing beta               =       0.7000
     number of iterations used =            8  plain     mixing
     Exchange-correlation      = HSE ( 1  4 12  4 0 0)
     EXX-fraction              =        0.25

     celldm(1)=  10.683567  celldm(2)=   1.000000  celldm(3)=   1.000000
     celldm(4)=   0.000000  celldm(5)=   0.000000  celldm(6)=   0.000000

     crystal axes: (cart. coord. in units of alat)
               a(1) = (  -0.500000   0.000000   0.500000 )  
               a(2) = (   0.000000   0.500000   0.500000 )  
               a(3) = (  -0.500000   0.500000   0.000000 )  

     reciprocal axes: (cart. coord. in units 2 pi/alat)
               b(1) = ( -1.000000 -1.000000  1.000000 )  
               b(2) = (  1.000000  1.000000  1.000000 )  
               b(3) = ( -1.000000  1.000000 -1.000000 )  


     PseudoPot. # 1 for Ga read from file:
     ./Ga.pbe-hgh.UPF
     MD5 check sum: 695508ec8f283cae6979fe31495b906b
     Pseudo is Norm-conserving, Zval =  3.0
     Generated in analytical, separable form
     Using radial grid of 1205 points,  6 beta functions with: 
                l(1) =   0
                l(2) =   0
                l(3) =   0
                l(4) =   1
                l(5) =   1
                l(6) =   2

     PseudoPot. # 2 for As read from file:
     ./As.pbe-hgh.UPF
     MD5 check sum: f59c42c6a749309bc30bc227e87f4d6b
     Pseudo is Norm-conserving, Zval =  5.0
     Generated in analytical, separable form
     Using radial grid of 1209 points,  6 beta functions with: 
                l(1) =   0
                l(2) =   0
                l(3) =   0
                l(4) =   1
                l(5) =   1
                l(6) =   2

     atomic species   valence    mass     pseudopotential
        Ga             3.00    69.72300     Ga( 1.00)
        As             5.00    74.92200     As( 1.00)

     24 Sym. Ops. (no inversion) found



   Cartesian axes

     site n.     atom                  positions (alat units)
         1           Ga  tau(   1) = (   0.0000000   0.0000000   0.0000000  )
         2           As  tau(   2) = (   0.2500000   0.2500000   0.2500000  )

     number of k points=    35
                       cart. coord. in units 2pi/alat
        k(    1) = (   0.0000000   0.0000000   0.0000000), wk =   0.0027435
        k(    2) = (  -0.1111111   0.1111111  -0.1111111), wk =   0.0219479
        k(    3) = (  -0.2222222   0.2222222  -0.2222222), wk =   0.0219479
        k(    4) = (  -0.3333333   0.3333333  -0.3333333), wk =   0.0219479
        k(    5) = (  -0.4444444   0.4444444  -0.4444444), wk =   0.0219479
        k(    6) = (   0.0000000   0.2222222   0.0000000), wk =   0.0164609
        k(    7) = (  -0.1111111   0.3333333  -0.1111111), wk =   0.0658436
        k(    8) = (  -0.2222222   0.4444444  -0.2222222), wk =   0.0658436
        k(    9) = (  -0.3333333   0.5555556  -0.3333333), wk =   0.0658436
        k(   10) = (   0.5555556  -0.3333333   0.5555556), wk =   0.0658436
        k(   11) = (   0.4444444  -0.2222222   0.4444444), wk =   0.0658436
        k(   12) = (   0.3333333  -0.1111111   0.3333333), wk =   0.0658436
        k(   13) = (   0.2222222  -0.0000000   0.2222222), wk =   0.0329218
        k(   14) = (   0.0000000   0.4444444   0.0000000), wk =   0.0164609
        k(   15) = (  -0.1111111   0.5555556  -0.1111111), wk =   0.0658436
        k(   16) = (  -0.2222222   0.6666667  -0.2222222), wk =   0.0658436
        k(   17) = (   0.6666667  -0.2222222   0.6666667), wk =   0.0658436
        k(   18) = (   0.5555556  -0.1111111   0.5555556), wk =   0.0658436
        k(   19) = (   0.4444444   0.0000000   0.4444444), wk =   0.0329218
        k(   20) = (   0.0000000   0.6666667   0.0000000), wk =   0.0164609
        k(   21) = (  -0.1111111   0.7777778  -0.1111111), wk =   0.0658436
        k(   22) = (   0.7777778  -0.1111111   0.7777778), wk =   0.0658436
        k(   23) = (   0.6666667  -0.0000000   0.6666667), wk =   0.0329218
        k(   24) = (   0.0000000   0.8888889   0.0000000), wk =   0.0164609
        k(   25) = (   0.8888889   0.0000000   0.8888889), wk =   0.0329218
        k(   26) = (  -0.2222222   0.4444444   0.0000000), wk =   0.0658436
        k(   27) = (  -0.3333333   0.5555556  -0.1111111), wk =   0.1316872
        k(   28) = (   0.5555556  -0.3333333   0.7777778), wk =   0.1316872
        k(   29) = (  -0.2222222   0.6666667   0.0000000), wk =   0.0658436
        k(   30) = (   0.6666667  -0.2222222   0.8888889), wk =   0.1316872
        k(   31) = (   0.5555556  -0.1111111   0.7777778), wk =   0.1316872
        k(   32) = (   0.4444444   0.0000000   0.6666667), wk =   0.0658436
        k(   33) = (   0.7777778  -0.1111111   1.0000000), wk =   0.0658436
        k(   34) = (   0.6666667  -0.0000000   0.8888889), wk =   0.0658436
        k(   35) = (   0.5555556  -0.1111111   1.0000000), wk =   0.0658436

     Dense  grid:    41151 G-vectors     FFT dimensions: (  50,  50,  50)

     Largest allocated arrays     est. size (Mb)     dimensions
        Kohn-Sham Wavefunctions         0.09 Mb     (     648,    9)
        NL pseudopotentials             0.28 Mb     (     648,   28)
        Each V/rho on FFT grid          0.27 Mb     (   17500)
        Each G-vector array             0.04 Mb     (    5145)
        G-vector shells                 0.00 Mb     (     381)
     Largest temporary arrays     est. size (Mb)     dimensions
        Auxiliary wavefunctions         0.36 Mb     (     648,   36)
        Each subspace H/S matrix        0.02 Mb     (      36,   36)
        Each <psi_i|beta_j> matrix      0.00 Mb     (      28,    9)
        Arrays for rho mixing           2.14 Mb     (   17500,    8)

     Initial potential from superposition of free atoms

     starting charge    6.00000, renormalised to    8.00000
     Starting wfc are   18 randomized atomic wfcs

     total cpu time spent up to now is        3.6 secs

     per-process dynamical memory:    16.3 Mb

     Self-consistent Calculation

     iteration #  1     ecut=   100.00 Ry     beta=0.70
     Davidson diagonalization with overlap
     ethr =  1.00E-02,  avg # of iterations =  2.6

     total cpu time spent up to now is        7.4 secs

          k = 0.0000 0.0000 0.0000     band energies (ev):

    -6.7990   5.9574   5.9574   5.9574   6.3989   9.1970   9.1971   9.1973
    15.5731

          k =-0.1111 0.1111-0.1111     band energies (ev):

    -6.6584   4.1406   5.7368   5.7370   7.3515   9.5099   9.5102   9.6812
    14.7554

          k =-0.2222 0.2222-0.2222     band energies (ev):

    -6.2525   2.0921   5.3149   5.3152   7.1827  10.0241  10.0253  11.2518
    14.3579

          k =-0.3333 0.3333-0.3333     band energies (ev):

    -5.6524   0.3164   4.9514   4.9516   6.8290  10.1689  10.1723  12.9656
    15.1175

          k =-0.4444 0.4444-0.4444     band energies (ev):

    -5.0946  -0.8484   4.7548   4.7552   6.6274  10.0871  10.0907  13.0759
    15.5838

          k = 0.0000 0.2222 0.0000     band energies (ev):

    -6.6114   4.1299   5.3303   5.3351   8.0827   8.6439  10.0696  10.0697
    13.6425

          k =-0.1111 0.3333-0.1111     band energies (ev):

    -6.2921   2.5829   4.8548   4.8783   8.2030   8.9206  10.7705  10.9637
    13.2370

          k =-0.2222 0.4444-0.2222     band energies (ev):

    -5.7469   0.8413   4.3239   4.5235   7.9126   9.5689  11.0049  11.5724
    14.4567

          k =-0.3333 0.5556-0.3333     band energies (ev):

    -5.1360  -0.5150   3.8722   4.4167   7.6600   9.7438  10.7879  12.8271
    14.7795

          k = 0.5556-0.3333 0.5556     band energies (ev):

    -4.9019  -0.9378   3.6247   4.5445   7.5818   9.8541  10.5300  13.6460
    15.4611

          k = 0.4444-0.2222 0.4444     band energies (ev):

    -5.3294  -0.1262   3.6300   4.8774   7.6946  10.1259  10.3488  12.8889
    14.6003

          k = 0.3333-0.1111 0.3333     band energies (ev):

    -5.9501   1.3943   3.9361   5.3360   7.9425  10.0589  10.2043  11.5545
    13.6042

          k = 0.2222-0.0000 0.2222     band energies (ev):

    -6.4288   3.0427   4.6703   5.7272   7.9606   9.5391   9.5834  10.8410
    13.7599

          k = 0.0000 0.4444 0.0000     band energies (ev):

    -6.0633   2.1859   4.3286   4.3287   7.5790   9.0352  11.7858  11.7862
    12.8036

          k =-0.1111 0.5556-0.1111     band energies (ev):

    -5.5962   1.0053   3.6653   3.9657   7.6751   8.9845  11.6887  12.3916
    14.4450

          k =-0.2222 0.6667-0.2222     band energies (ev):

    -5.0022  -0.1978   2.8926   3.8498   7.7608  10.0092  11.4063  12.2718
    16.0930

          k = 0.6667-0.2222 0.6667     band energies (ev):

    -4.6125  -0.8409   2.3680   3.9980   7.8327  10.6926  11.8770  12.4255
    15.1007

          k = 0.5556-0.1111 0.5556     band energies (ev):

    -4.8505  -0.4517   2.2281   4.3818   8.1020  10.7971  11.4331  12.7428
    14.8644

          k = 0.4444 0.0000 0.4444     band energies (ev):

    -5.4316   0.5312   2.6734   4.9053   8.3918  10.7678  10.8914  11.2054
    13.5265

          k = 0.0000 0.6667 0.0000     band energies (ev):

    -5.2189   0.3892   3.5481   3.5483   6.9499   8.0932  13.7005  13.7011
    14.3784

          k =-0.1111 0.7778-0.1111     band energies (ev):

    -4.7032  -0.4335   2.8572   3.3773   7.1596   8.1825  13.4954  14.0895
    16.3523

          k = 0.7778-0.1111 0.7778     band energies (ev):

    -4.3053  -0.9292   1.9965   3.4821   7.3271   9.7521  13.1223  13.6574
    15.3694

          k = 0.6667-0.0000 0.6667     band energies (ev):

    -4.3916  -0.8091   1.6457   3.8444   7.6669  11.6355  12.7596  13.0492
    13.2750

          k = 0.0000 0.8889 0.0000     band energies (ev):

    -4.3394  -0.9788   3.1372   3.1372   6.7624   7.2309  15.4784  15.4795
    16.3725

          k = 0.8889 0.0000 0.8889     band energies (ev):

    -4.1529  -1.1731   2.5821   3.1742   6.9908   7.8373  15.0423  15.2171
    16.1920

          k =-0.2222 0.4444 0.0000     band energies (ev):

    -5.8982   1.5589   3.6554   4.7763   8.5789   9.0246  10.9465  11.4822
    13.6922

          k =-0.3333 0.5556-0.1111     band energies (ev):

    -5.3189   0.2671   2.9743   4.3604   8.6051   9.6147  10.9280  12.0202
    14.6743

          k = 0.5556-0.3333 0.7778     band energies (ev):

    -4.7863  -0.7167   2.7151   4.0538   8.4908   9.6027  11.6285  12.8333
    14.8640

          k =-0.2222 0.6667 0.0000     band energies (ev):

    -5.0958   0.1544   2.9232   3.6037   8.0132   8.8095  11.5873  13.6006
    15.2621

          k = 0.6667-0.2222 0.8889     band energies (ev):

    -4.5621  -0.6226   2.2582   3.3140   8.3390   9.9449  11.1551  13.8047
    15.2522

          k = 0.5556-0.1111 0.7778     band energies (ev):

    -4.3903  -0.8411   1.8818   3.4200   8.5754  10.6019  11.9078  12.8845
    14.1285

          k = 0.4444 0.0000 0.6667     band energies (ev):

    -4.7714  -0.3574   2.0491   3.8450   8.9488  10.2825  10.7914  13.3145
    14.5296

          k = 0.7778-0.1111 1.0000     band energies (ev):

    -4.2916  -0.9454   2.6246   2.8524   7.7629   8.1572  13.3005  14.8826
    16.3253

          k = 0.6667-0.0000 0.8889     band energies (ev):

    -4.1498  -1.0382   1.9622   2.9358   8.1420   9.7845  12.7143  13.0291
    15.8405

          k = 0.5556-0.1111 1.0000     band energies (ev):

    -4.1995  -0.9305   1.9866   2.6465   9.8392  10.1135  10.7410  12.5253
    15.9764

     highest occupied, lowest unoccupied level (ev):     5.9574    6.3989

     iteration #  2     ecut=   100.00 Ry     beta=0.70
     Davidson diagonalization with overlap
     ethr =  1.53E-03,  avg # of iterations =  1.4

     total cpu time spent up to now is        9.7 secs

          k = 0.0000 0.0000 0.0000     band energies (ev):

    -7.6936   4.9492   4.9492   4.9492   5.6437   8.9238   8.9238   8.9239
    15.1686

          k =-0.1111 0.1111-0.1111     band energies (ev):

    -7.5635   3.3124   4.7715   4.7715   6.6329   9.1969   9.1970   9.2092
    14.4370

          k =-0.2222 0.2222-0.2222     band energies (ev):

    -7.1909   1.3721   4.4050   4.4050   6.6544   9.6747   9.6749  10.5804
    14.0353

          k =-0.3333 0.3333-0.3333     band energies (ev):

    -6.6544  -0.2921   4.0770   4.0771   6.3388   9.8376   9.8379  12.3261
    14.7519

          k =-0.4444 0.4444-0.4444     band energies (ev):

    -6.1835  -1.3469   3.8952   3.8952   6.1416   9.7778   9.7779  12.8695
    14.9386

          k = 0.0000 0.2222 0.0000     band energies (ev):

    -7.5197   3.2767   4.4384   4.4387   7.2251   8.3642   9.6764   9.6764
    13.3733

          k =-0.1111 0.3333-0.1111     band energies (ev):

    -7.2260   1.8142   4.0162   4.0526   7.5553   8.5266  10.3309  10.4728
    12.8902

          k =-0.2222 0.4444-0.2222     band energies (ev):

    -6.7359   0.1858   3.5587   3.7088   7.3132   9.2146  10.5883  11.1084
    13.9115

          k =-0.3333 0.5556-0.3333     band energies (ev):

    -6.2124  -1.0496   3.1390   3.6022   7.0836   9.4254  10.4172  12.3573
    14.5099

          k = 0.5556-0.3333 0.5556     band energies (ev):

    -6.0244  -1.4187   2.9091   3.7113   7.0149   9.5364  10.1887  13.2093
    14.9929

          k = 0.4444-0.2222 0.4444     band energies (ev):

    -6.3749  -0.7008   2.9213   4.0077   7.1269   9.7768  10.0229  12.3145
    14.2422

          k = 0.3333-0.1111 0.3333     band energies (ev):

    -6.9172   0.6998   3.2175   4.4117   7.3496   9.7404   9.7639  10.9891
    13.2993

          k = 0.2222-0.0000 0.2222     band energies (ev):

    -7.3514   2.2514   3.8855   4.7513   7.2731   9.0986   9.2917  10.3190
    13.4769

          k = 0.0000 0.4444 0.0000     band energies (ev):

    -7.0167   1.4105   3.5434   3.5434   7.2878   8.4276  11.2796  11.2796
    12.3249

          k =-0.1111 0.5556-0.1111     band energies (ev):

    -6.5989   0.3096   2.9555   3.2054   7.3350   8.4909  11.2166  11.8857
    13.7949

          k =-0.2222 0.6667-0.2222     band energies (ev):

    -6.0906  -0.7735   2.2450   3.0920   7.3897   9.4516  11.0026  11.8168
    15.4784

          k = 0.6667-0.2222 0.6667     band energies (ev):

    -5.7830  -1.3199   1.7497   3.2226   7.4475  10.1042  11.4600  11.9970
    14.5848

          k = 0.5556-0.1111 0.5556     band energies (ev):

    -5.9706  -0.9868   1.6254   3.5694   7.6779  10.2645  11.0402  12.1263
    14.5228

          k = 0.4444 0.0000 0.4444     band energies (ev):

    -6.4587  -0.1156   2.0590   4.0364   7.8814  10.3469  10.4080  10.7124
    13.2132

          k = 0.0000 0.6667 0.0000     band energies (ev):

    -6.2682  -0.2643   2.8166   2.8167   6.6866   7.7238  13.1379  13.1379
    13.6445

          k =-0.1111 0.7778-0.1111     band energies (ev):

    -5.8394  -0.9896   2.2024   2.6538   6.8698   7.7967  12.9037  13.5488
    15.5818

          k = 0.7778-0.1111 0.7778     band energies (ev):

    -5.5358  -1.3858   1.4120   2.7488   7.0257   9.2624  12.5881  13.1618
    14.7558

          k = 0.6667-0.0000 0.6667     band energies (ev):

    -5.6052  -1.2767   1.0828   3.0822   7.3374  10.9238  12.3028  12.6377
    12.8041

          k = 0.0000 0.8889 0.0000     band energies (ev):

    -5.5554  -1.4498   2.4277   2.4277   6.5173   6.9041  14.8843  14.8847
    15.5156

          k = 0.8889 0.0000 0.8889     band energies (ev):

    -5.4215  -1.5933   1.9425   2.4616   6.7199   7.4596  14.4393  14.6566
    15.4484

          k =-0.2222 0.4444 0.0000     band energies (ev):

    -6.8693   0.8342   2.9654   3.9379   8.0146   8.5671  10.5689  11.0053
    13.2154

          k =-0.3333 0.5556-0.1111     band energies (ev):

    -6.3608  -0.3535   2.3252   3.5684   8.0265   9.2255  10.5247  11.5574
    14.1658

          k = 0.5556-0.3333 0.7778     band energies (ev):

    -5.9221  -1.2191   2.0699   3.2899   7.9142   9.2849  11.1460  12.3515
    14.4197

          k =-0.2222 0.6667 0.0000     band energies (ev):

    -6.1653  -0.4697   2.2724   2.8868   7.6453   8.3625  11.1144  13.0509
    14.6027

          k = 0.6667-0.2222 0.8889     band energies (ev):

    -5.7328  -1.1358   1.6528   2.6270   7.9366   9.4090  10.7578  13.2813
    14.6773

          k = 0.5556-0.1111 0.7778     band energies (ev):

    -5.6043  -1.3052   1.2991   2.7242   8.1398  10.0944  11.3281  12.5727
    13.5832

          k = 0.4444 0.0000 0.6667     band energies (ev):

    -5.9018  -0.9065   1.4637   3.1111   8.4278   9.8851  10.3046  12.7952
    14.0080

          k = 0.7778-0.1111 1.0000     band energies (ev):

    -5.5214  -1.4081   1.9782   2.2012   7.4355   7.7458  12.7665  14.3161
    15.5988

          k = 0.6667-0.0000 0.8889     band energies (ev):

    -5.4211  -1.4607   1.3771   2.2782   7.7667   9.2862  12.2447  12.5375
    15.2253

          k = 0.5556-0.1111 1.0000     band energies (ev):

    -5.4563  -1.3702   1.3935   2.0324   9.2813   9.5759  10.4112  12.1139
    15.3408

     highest occupied, lowest unoccupied level (ev):     4.9492    5.6437

     iteration #  3     ecut=   100.00 Ry     beta=0.70
     Davidson diagonalization with overlap
     ethr =  1.31E-04,  avg # of iterations =  1.4

     total cpu time spent up to now is       11.9 secs

          k = 0.0000 0.0000 0.0000     band energies (ev):

    -7.5754   5.0959   5.0959   5.0959   5.6473   8.8653   8.8653   8.8654
    15.1930

          k =-0.1111 0.1111-0.1111     band energies (ev):

    -7.4424   3.3871   4.9076   4.9076   6.6665   9.1485   9.1485   9.1942
    14.4548

          k =-0.2222 0.2222-0.2222     band energies (ev):

    -7.0610   1.4187   4.5254   4.5254   6.6523   9.6419   9.6419  10.6272
    14.0529

          k =-0.3333 0.3333-0.3333     band energies (ev):

    -6.5074  -0.2732   4.1873   4.1873   6.3305   9.8160   9.8160  12.3756
    14.7678

          k =-0.4444 0.4444-0.4444     band energies (ev):

    -6.0137  -1.3555   4.0010   4.0010   6.1335   9.7613   9.7614  12.8898
    15.0174

          k = 0.0000 0.2222 0.0000     band energies (ev):

    -7.3976   3.3484   4.5587   4.5587   7.3000   8.3097   9.6457   9.6457
    13.3375

          k =-0.1111 0.3333-0.1111     band energies (ev):

    -7.0971   1.8655   4.1217   4.1527   7.5997   8.4961  10.3147  10.4817
    12.9128

          k =-0.2222 0.4444-0.2222     band energies (ev):

    -6.5921   0.2106   3.6430   3.8078   7.3409   9.1910  10.5795  11.1448
    13.9054

          k =-0.3333 0.5556-0.3333     band energies (ev):

    -6.0457  -1.0546   3.2151   3.6996   7.1048   9.4155  10.4099  12.3898
    14.5045

          k = 0.5556-0.3333 0.5556     band energies (ev):

    -5.8465  -1.4368   2.9821   3.8117   7.0319   9.5340  10.1778  13.2406
    15.0192

          k = 0.4444-0.2222 0.4444     band energies (ev):

    -6.2165  -0.6960   2.9949   4.1160   7.1412   9.7744  10.0024  12.3628
    14.2590

          k = 0.3333-0.1111 0.3333     band energies (ev):

    -6.7796   0.7339   3.2963   4.5331   7.3656   9.7037   9.7601  11.0301
    13.3187

          k = 0.2222-0.0000 0.2222     band energies (ev):

    -7.2256   2.3098   3.9811   4.8872   7.3054   9.0881   9.2410  10.3245
    13.4958

          k = 0.0000 0.4444 0.0000     band energies (ev):

    -6.8822   1.4525   3.6370   3.6370   7.2700   8.4637  11.2773  11.2773
    12.3515

          k =-0.1111 0.5556-0.1111     band energies (ev):

    -6.4508   0.3302   3.0330   3.2927   7.3311   8.5157  11.2337  11.8900
    13.8488

          k =-0.2222 0.6667-0.2222     band energies (ev):

    -5.9195  -0.7838   2.3107   3.1778   7.3950   9.4885  11.0121  11.8220
    15.5377

          k = 0.6667-0.2222 0.6667     band energies (ev):

    -5.5908  -1.3553   1.8112   3.3117   7.4520  10.1526  11.4618  12.0102
    14.6102

          k = 0.5556-0.1111 0.5556     band energies (ev):

    -5.7914  -1.0085   1.6866   3.6657   7.6818  10.3074  11.0322  12.1753
    14.5112

          k = 0.4444 0.0000 0.4444     band energies (ev):

    -6.3048  -0.1057   2.1226   4.1449   7.8897  10.3734  10.3838  10.7527
    13.2328

          k = 0.0000 0.6667 0.0000     band energies (ev):

    -6.1066  -0.2609   2.8978   2.8978   6.6699   7.7436  13.1497  13.1497
    13.7273

          k =-0.1111 0.7778-0.1111     band energies (ev):

    -5.6539  -1.0156   2.2723   2.7328   6.8635   7.8177  12.9367  13.5615
    15.6569

          k = 0.7778-0.1111 0.7778     band energies (ev):

    -5.3258  -1.4433   1.4755   2.8293   7.0246   9.3008  12.6102  13.1738
    14.8008

          k = 0.6667-0.0000 0.6667     band energies (ev):

    -5.4004  -1.3318   1.1461   3.1681   7.3366  11.0146  12.3085  12.6187
    12.8261

          k = 0.0000 0.8889 0.0000     band energies (ev):

    -5.3480  -1.4986   2.5040   2.5040   6.5029   6.9205  14.8982  14.8983
    15.6396

          k = 0.8889 0.0000 0.8889     band energies (ev):

    -5.2010  -1.6583   2.0107   2.5384   6.7151   7.4786  14.4718  14.6727
    15.5276

          k =-0.2222 0.4444 0.0000     band energies (ev):

    -6.7303   0.8676   3.0412   4.0408   8.0592   8.5425  10.5871  10.9979
    13.2511

          k =-0.3333 0.5556-0.1111     band energies (ev):

    -6.2026  -0.3481   2.3914   3.6614   8.0577   9.2147  10.5527  11.5593
    14.2112

          k = 0.5556-0.3333 0.7778     band energies (ev):

    -5.7393  -1.2432   2.1331   3.3783   7.9407   9.2867  11.1659  12.3727
    14.4396

          k =-0.2222 0.6667 0.0000     band energies (ev):

    -5.9985  -0.4746   2.3416   2.9664   7.6493   8.3873  11.1315  13.0587
    14.6798

          k = 0.6667-0.2222 0.8889     band energies (ev):

    -5.5392  -1.1749   1.7170   2.7018   7.9508   9.4501  10.7628  13.2925
    14.7273

          k = 0.5556-0.1111 0.7778     band energies (ev):

    -5.3997  -1.3589   1.3623   2.8004   8.1571  10.1315  11.3737  12.5456
    13.6131

          k = 0.4444 0.0000 0.6667     band energies (ev):

    -5.7194  -0.9341   1.5264   3.1937   8.4538   9.8782  10.3559  12.7961
    14.0248

          k = 0.7778-0.1111 1.0000     band energies (ev):

    -5.3112  -1.4638   2.0494   2.2689   7.4347   7.7739  12.7899  14.3388
    15.6772

          k = 0.6667-0.0000 0.8889     band energies (ev):

    -5.2007  -1.5317   1.4433   2.3476   7.7789   9.3263  12.2497  12.5638
    15.2649

          k = 0.5556-0.1111 1.0000     band energies (ev):

    -5.2397  -1.4374   1.4630   2.0953   9.3394   9.6089  10.4004  12.1191
    15.3828

     highest occupied, lowest unoccupied level (ev):     5.0959    5.6473

     iteration #  4     ecut=   100.00 Ry     beta=0.70
     Davidson diagonalization with overlap
     ethr =  9.25E-06,  avg # of iterations =  2.7

     total cpu time spent up to now is       14.3 secs

          k = 0.0000 0.0000 0.0000     band energies (ev):

    -7.6087   5.0574   5.0574   5.0574   5.6263   8.8642   8.8642   8.8642
    15.1814

          k =-0.1111 0.1111-0.1111     band energies (ev):

    -7.4762   3.3593   4.8711   4.8711   6.6445   9.1455   9.1455   9.1845
    14.4477

          k =-0.2222 0.2222-0.2222     band energies (ev):

    -7.0965   1.3964   4.4918   4.4918   6.6400   9.6369   9.6369  10.6067
    14.0466

          k =-0.3333 0.3333-0.3333     band energies (ev):

    -6.5463  -0.2899   4.1554   4.1554   6.3206   9.8113   9.8113  12.3524
    13.8866

          k =-0.4444 0.4444-0.4444     band energies (ev):

    -6.0572  -1.3666   3.9698   3.9698   6.1240   9.7571   9.7571  12.8909
    15.0013

          k = 0.0000 0.2222 0.0000     band energies (ev):

    -7.4316   3.3200   4.5256   4.5256   7.2709   8.3098   9.6391   9.6391
    13.3344

          k =-0.1111 0.3333-0.1111     band energies (ev):

    -7.1325   1.8412   4.0912   4.1232   7.5796   8.4910  10.3058  10.4702
    12.9051

          k =-0.2222 0.4444-0.2222     band energies (ev):

    -6.6303   0.1919   3.6167   3.7786   7.3247   9.1860  10.5712  11.1341
    13.8947

          k =-0.3333 0.5556-0.3333     band energies (ev):

    -6.0885  -1.0673   3.1904   3.6705   7.0899   9.4115  10.4032  12.3779
    14.5024

          k = 0.5556-0.3333 0.5556     band energies (ev):

    -5.8916  -1.4468   2.9583   3.7818   7.0177   9.5299  10.1723  13.2308
    15.0111

          k = 0.4444-0.2222 0.4444     band energies (ev):

    -6.2577  -0.7106   2.9712   4.0844   7.1267   9.7692   9.9978  12.3442
    14.2514

          k = 0.3333-0.1111 0.3333     band energies (ev):

    -6.8167   0.7132   3.2719   4.4989   7.3496   9.7000   9.7514  11.0140
    13.3130

          k = 0.2222-0.0000 0.2222     band energies (ev):

    -7.2604   2.2843   3.9532   4.8504   7.2846   9.0805   9.2389  10.3117
    13.4905

          k = 0.0000 0.4444 0.0000     band energies (ev):

    -6.9186   1.4287   3.6091   3.6091   7.2679   8.4459  11.2654  11.2654
    12.3406

          k =-0.1111 0.5556-0.1111     band energies (ev):

    -6.4898   0.3104   3.0089   3.2660   7.3266   8.5031  11.2237  11.8779
    13.8288

          k =-0.2222 0.6667-0.2222     band energies (ev):

    -5.9630  -0.7976   2.2898   3.1512   7.3885   9.4733  11.0053  11.8117
    15.5128

          k = 0.6667-0.2222 0.6667     band energies (ev):

    -5.6384  -1.3643   1.7917   3.2845   7.4448  10.1366  11.4529  12.0016
    14.5955

          k = 0.5556-0.1111 0.5556     band energies (ev):

    -5.8365  -1.0202   1.6677   3.6367   7.6729  10.2943  11.0243  12.1581
    14.1573

          k = 0.4444 0.0000 0.4444     band energies (ev):

    -6.3450  -0.1233   2.1029   4.1133   7.8768  10.3609  10.3781  10.7408
    13.2267

          k = 0.0000 0.6667 0.0000     band energies (ev):

    -6.1480  -0.2782   2.8725   2.8725   6.6693   7.7365  13.1353  13.1353
    13.7054

          k =-0.1111 0.7778-0.1111     band energies (ev):

    -5.6999  -1.0277   2.2506   2.7079   6.8613   7.8103  12.9214  13.5477
    15.6326

          k = 0.7778-0.1111 0.7778     band energies (ev):

    -5.3766  -1.4502   1.4571   2.8039   7.0215   9.2884  12.5978  13.1606
    14.7843

          k = 0.6667-0.0000 0.6667     band energies (ev):

    -5.4502  -1.3393   1.1286   3.1414   7.3322  10.9915  12.2981  12.6109
    12.8187

          k = 0.0000 0.8889 0.0000     band energies (ev):

    -5.3981  -1.5064   2.4798   2.4798   6.5027   6.9160  14.8813  14.8814
    15.6108

          k = 0.8889 0.0000 0.8889     band energies (ev):

    -5.2537  -1.6635   1.9897   2.5140   6.7136   7.4719  14.4553  14.6568
    15.5007

          k =-0.2222 0.4444 0.0000     band energies (ev):

    -6.7676   0.8459   3.0179   4.0106   8.0417   8.5354  10.5801  10.9876
    13.2344

          k =-0.3333 0.5556-0.1111     band energies (ev):

    -6.2437  -0.3644   2.3704   3.6333   8.0416   9.2083  10.5447  11.5490
    14.1945

          k = 0.5556-0.3333 0.7778     band energies (ev):

    -5.7852  -1.2536   2.1125   3.3515   7.9252   9.2829  11.1541  12.3613
    14.4275

          k =-0.2222 0.6667 0.0000     band energies (ev):

    -6.0411  -0.4904   2.3201   2.9417   7.6434   8.3768  11.1213  13.0448
    14.6589

          k = 0.6667-0.2222 0.8889     band energies (ev):

    -5.5870  -1.1849   1.6978   2.6785   7.9428   9.4356  10.7562  13.2795
    14.7114

          k = 0.5556-0.1111 0.7778     band energies (ev):

    -5.4496  -1.3664   1.3441   2.7767   8.1475  10.1188  11.3577  12.5433
    13.5976

          k = 0.4444 0.0000 0.6667     band energies (ev):

    -5.7651  -0.9460   1.5080   3.1683   8.4401   9.8713  10.3442  12.7840
    14.0112

          k = 0.7778-0.1111 1.0000     band energies (ev):

    -5.3621  -1.4710   2.0281   2.2474   7.4306   7.7654  12.7765  14.3243
    15.6487

          k = 0.6667-0.0000 0.8889     band energies (ev):

    -5.2534  -1.5368   1.4247   2.3258   7.7723   9.3136  12.2392  12.5532
    15.2485

          k = 0.5556-0.1111 1.0000     band energies (ev):

    -5.2918  -1.4431   1.4440   2.0755   9.3223   9.5960  10.3967  12.1122
    15.3646

     highest occupied, lowest unoccupied level (ev):     5.0574    5.6263

     iteration #  5     ecut=   100.00 Ry     beta=0.70
     Davidson diagonalization with overlap
     ethr =  1.69E-07,  avg # of iterations =  2.3

     total cpu time spent up to now is       16.6 secs

     End of self-consistent calculation

          k = 0.0000 0.0000 0.0000 (  5065 PWs)   bands (ev):

    -7.6049   5.0612   5.0612   5.0612   5.6324   8.8688   8.8688   8.8688
    12.7030

          k =-0.1111 0.1111-0.1111 (  5089 PWs)   bands (ev):

    -7.4724   3.3641   4.8749   4.8749   6.6498   9.1501   9.1501   9.1890
    13.4815

          k =-0.2222 0.2222-0.2222 (  5138 PWs)   bands (ev):

    -7.0928   1.4012   4.4957   4.4957   6.6451   9.6414   9.6414  10.6113
    14.0484

          k =-0.3333 0.3333-0.3333 (  5135 PWs)   bands (ev):

    -6.5427  -0.2851   4.1594   4.1594   6.3256   9.8152   9.8152  12.3567
    13.8895

          k =-0.4444 0.4444-0.4444 (  5156 PWs)   bands (ev):

    -6.0536  -1.3617   3.9738   3.9738   6.1290   9.7606   9.7606  12.8939
    15.0051

          k = 0.0000 0.2222 0.0000 (  5093 PWs)   bands (ev):

    -7.4278   3.3251   4.5294   4.5294   7.2759   8.3144   9.6437   9.6437
    13.3364

          k =-0.1111 0.3333-0.1111 (  5143 PWs)   bands (ev):

    -7.1287   1.8462   4.0951   4.1272   7.5844   8.4956  10.3104  10.4745
    12.9071

          k =-0.2222 0.4444-0.2222 (  5140 PWs)   bands (ev):

    -6.6267   0.1969   3.6207   3.7825   7.3294   9.1902  10.5753  11.1376
    13.8979

          k =-0.3333 0.5556-0.3333 (  5156 PWs)   bands (ev):

    -6.0850  -1.0622   3.1944   3.6744   7.0946   9.4150  10.4069  12.3816
    14.5050

          k = 0.5556-0.3333 0.5556 (  5148 PWs)   bands (ev):

    -5.8881  -1.4417   2.9623   3.7857   7.0224   9.5332  10.1759  13.2345
    15.0145

          k = 0.4444-0.2222 0.4444 (  5150 PWs)   bands (ev):

    -6.2541  -0.7056   2.9751   4.0884   7.1315   9.7727  10.0016  12.3483
    14.2537

          k = 0.3333-0.1111 0.3333 (  5128 PWs)   bands (ev):

    -6.8130   0.7182   3.2757   4.5029   7.3545   9.7044   9.7557  11.0179
    13.3147

          k = 0.2222-0.0000 0.2222 (  5106 PWs)   bands (ev):

    -7.2566   2.2893   3.9570   4.8543   7.2896   9.0848   9.2435  10.3159
    13.4920

          k = 0.0000 0.4444 0.0000 (  5125 PWs)   bands (ev):

    -6.9149   1.4340   3.6129   3.6129   7.2719   8.4503  11.2701  11.2701
    12.3429

          k =-0.1111 0.5556-0.1111 (  5136 PWs)   bands (ev):

    -6.4861   0.3158   3.0127   3.2698   7.3304   8.5071  11.2275  11.8824
    13.8325

          k =-0.2222 0.6667-0.2222 (  5140 PWs)   bands (ev):

    -5.9595  -0.7921   2.2935   3.1550   7.3922   9.4773  11.0089  11.8157
    15.5166

          k = 0.6667-0.2222 0.6667 (  5155 PWs)   bands (ev):

    -5.6350  -1.3586   1.7953   3.2883   7.4487  10.1405  11.4566  12.0055
    14.5998

          k = 0.5556-0.1111 0.5556 (  5147 PWs)   bands (ev):

    -5.8330  -1.0146   1.6712   3.6407   7.6770  10.2981  11.0283  12.1622
    14.1596

          k = 0.4444 0.0000 0.4444 (  5144 PWs)   bands (ev):

    -6.3414  -0.1179   2.1065   4.1173   7.8814  10.3652  10.3824  10.7442
    13.2285

          k = 0.0000 0.6667 0.0000 (  5157 PWs)   bands (ev):

    -6.1445  -0.2725   2.8763   2.8763   6.6730   7.7398  13.1401  13.1401
    13.7089

          k =-0.1111 0.7778-0.1111 (  5144 PWs)   bands (ev):

    -5.6966  -1.0218   2.2542   2.7117   6.8648   7.8136  12.9258  13.5519
    15.6367

          k = 0.7778-0.1111 0.7778 (  5154 PWs)   bands (ev):

    -5.3734  -1.4440   1.4603   2.8077   7.0249   9.2920  12.6022  13.1647
    14.7886

          k = 0.6667-0.0000 0.6667 (  5148 PWs)   bands (ev):

    -5.4470  -1.3331   1.1317   3.1452   7.3358  10.9951  12.3023  12.6159
    12.8223

          k = 0.0000 0.8889 0.0000 (  5137 PWs)   bands (ev):

    -5.3949  -1.5003   2.4835   2.4835   6.5060   6.9192  14.8865  14.8865
    15.6147

          k = 0.8889 0.0000 0.8889 (  5162 PWs)   bands (ev):

    -5.2506  -1.6572   1.9932   2.5177   6.7168   7.4753  14.4601  14.6616
    15.5049

          k =-0.2222 0.4444 0.0000 (  5151 PWs)   bands (ev):

    -6.7639   0.8511   3.0216   4.0146   8.0460   8.5401  10.5834  10.9923
    13.2369

          k =-0.3333 0.5556-0.1111 (  5148 PWs)   bands (ev):

    -6.2401  -0.3591   2.3741   3.6372   8.0460   9.2124  10.5479  11.5532
    14.1972

          k = 0.5556-0.3333 0.7778 (  5165 PWs)   bands (ev):

    -5.7818  -1.2482   2.1162   3.3553   7.9297   9.2861  11.1579  12.3651
    14.4313

          k =-0.2222 0.6667 0.0000 (  5147 PWs)   bands (ev):

    -6.0376  -0.4847   2.3237   2.9455   7.6472   8.3804  11.1252  13.0496
    14.6619

          k = 0.6667-0.2222 0.8889 (  5154 PWs)   bands (ev):

    -5.5837  -1.1789   1.7012   2.6822   7.9465   9.4394  10.7599  13.2839
    14.7152

          k = 0.5556-0.1111 0.7778 (  5157 PWs)   bands (ev):

    -5.4464  -1.3602   1.3474   2.7804   8.1512  10.1225  11.3616  12.5475
    13.6015

          k = 0.4444 0.0000 0.6667 (  5173 PWs)   bands (ev):

    -5.7617  -0.9401   1.5113   3.1721   8.4442   9.8754  10.3475  12.7887
    14.0141

          k = 0.7778-0.1111 1.0000 (  5151 PWs)   bands (ev):

    -5.3589  -1.4648   2.0316   2.2510   7.4340   7.7688  12.7807  14.3290
    15.6527

          k = 0.6667-0.0000 0.8889 (  5142 PWs)   bands (ev):

    -5.2504  -1.5303   1.4279   2.3294   7.7758   9.3172  12.2433  12.5572
    15.2530

          k = 0.5556-0.1111 1.0000 (  5149 PWs)   bands (ev):

    -5.2887  -1.4367   1.4472   2.0790   9.3260   9.5998  10.4005  12.1161
    15.3692

     highest occupied, lowest unoccupied level (ev):     5.0612    5.6324

     convergence has been achieved in   5 iterations
     #### start writing restart_e file for alchemy...
     #### finished writing restart_e

     EXX: now go back to refine exchange calculation

     total cpu time spent up to now is     1365.2 secs

     per-process dynamical memory:   830.5 Mb

     Self-consistent Calculation

     iteration #  1     ecut=   100.00 Ry     beta=0.70
     Davidson diagonalization with overlap
     ethr =  1.69E-07,  avg # of iterations =  4.0

     total cpu time spent up to now is    25375.8 secs

          k = 0.0000 0.0000 0.0000     band energies (ev):

    -9.2487   4.7263   4.7263   4.7263   5.9238   9.2626   9.2626   9.2626
    13.1549

          k =-0.1111 0.1111-0.1111     band energies (ev):

    -9.0999   2.9830   4.5261   4.5261   6.9273   9.5657   9.5657   9.5722
    13.9929

          k =-0.2222 0.2222-0.2222     band energies (ev):

    -8.6796   0.7778   4.1149   4.1149   6.9336  10.0895  10.0895  11.1053
    14.5986

          k =-0.3333 0.3333-0.3333     band energies (ev):

    -8.0645  -1.1292   3.7440   3.7440   6.5850  10.2583  10.2583  12.9469
    14.3843

          k =-0.4444 0.4444-0.4444     band energies (ev):

    -7.5167  -2.3454   3.5378   3.5378   6.3713  10.1857  10.1857  13.3766
    15.6891

          k = 0.0000 0.2222 0.0000     band energies (ev):

    -9.0498   2.9648   4.1543   4.1543   7.5774   8.6392  10.0895  10.0895
    13.8289

          k =-0.1111 0.3333-0.1111     band energies (ev):

    -8.7179   1.2906   3.6806   3.7330   7.9108   8.8528  10.8051  10.9563
    13.3969

          k =-0.2222 0.4444-0.2222     band energies (ev):

    -8.1578  -0.5786   3.1926   3.3332   7.6217   9.6104  11.0751  11.6044
    14.4986

          k =-0.3333 0.5556-0.3333     band energies (ev):

    -7.5511  -2.0033   2.7249   3.2110   7.3709   9.8121  10.8802  12.9463
    15.0315

          k = 0.5556-0.3333 0.5556     band energies (ev):

    -7.3292  -2.4332   2.4647   3.3314   7.3013   9.9182  10.6343  13.8373
    15.6241

          k = 0.4444-0.2222 0.4444     band energies (ev):

    -7.7408  -1.6000   2.4767   3.6636   7.4281  10.1729  10.4662  12.9377
    14.8386

          k = 0.3333-0.1111 0.3333     band energies (ev):

    -8.3662   0.0120   2.8018   4.1179   7.6866  10.1633  10.1712  11.5241
    13.8167

          k = 0.2222-0.0000 0.2222     band energies (ev):

    -8.8595   1.7877   3.5399   4.4983   7.6300   9.4340   9.6776  10.8062
    14.0006

          k = 0.0000 0.4444 0.0000     band energies (ev):

    -8.4817   0.8383   3.1510   3.1510   7.5316   8.8325  11.8392  11.8392
    12.8173

          k =-0.1111 0.5556-0.1111     band energies (ev):

    -8.0019  -0.4327   2.5021   2.7703   7.5828   8.8876  11.7213  12.4875
    14.5059

          k =-0.2222 0.6667-0.2222     band energies (ev):

    -7.4130  -1.6891   1.7217   2.6409   7.6569   9.9422  11.4539  12.3959
    16.2412

          k = 0.6667-0.2222 0.6667     band energies (ev):

    -7.0462  -2.3330   1.1684   2.7873   7.7313  10.6224  12.0121  12.5440
    15.2776

          k = 0.5556-0.1111 0.5556     band energies (ev):

    -7.2692  -1.9420   1.0268   3.1751   7.9975  10.7541  11.5791  12.7468
    14.7261

          k = 0.4444 0.0000 0.4444     band energies (ev):

    -7.8410  -0.9254   1.5089   3.6987   8.2526  10.7905  10.9074  11.2255
    13.7175

          k = 0.0000 0.6667 0.0000     band energies (ev):

    -7.6197  -1.0972   2.3330   2.3330   6.8757   8.0287  13.8475  13.8475
    14.3600

          k =-0.1111 0.7778-0.1111     band energies (ev):

    -7.1167  -1.9455   1.6549   2.1498   7.0775   8.1042  13.5804  14.2733
    16.4493

          k = 0.7778-0.1111 0.7778     band energies (ev):

    -6.7513  -2.4244   0.7818   2.2554   7.2557   9.6966  13.2239  13.8588
    15.5054

          k = 0.6667-0.0000 0.6667     band energies (ev):

    -6.8335  -2.2975   0.4160   2.6290   7.6010  11.5682  12.9578  13.2254
    13.3684

          k = 0.0000 0.8889 0.0000     band energies (ev):

    -6.7775  -2.4901   1.8958   1.8958   6.6913   7.1411  15.7343  15.7343
    16.3907

          k = 0.8889 0.0000 0.8889     band energies (ev):

    -6.6126  -2.6681   1.3626   1.9340   6.9190   7.7352  15.2643  15.4905
    16.2414

          k =-0.2222 0.4444 0.0000     band energies (ev):

    -8.3110   0.1704   2.5154   3.5922   8.4065   8.9109  11.0155  11.5283
    13.8010

          k =-0.3333 0.5556-0.1111     band energies (ev):

    -7.7260  -1.2001   1.8090   3.1761   8.4043   9.6182  10.9863  12.0975
    14.8224

          k = 0.5556-0.3333 0.7778     band energies (ev):

    -7.2103  -2.2091   1.5288   2.8627   8.2805   9.6432  11.7173  12.9278
    15.0757

          k =-0.2222 0.6667 0.0000     band energies (ev):

    -7.4992  -1.3366   1.7381   2.4155   7.9161   8.7384  11.6241  13.7476
    15.3603

          k = 0.6667-0.2222 0.8889     band energies (ev):

    -6.9887  -2.1229   1.0532   2.1264   8.2484   9.8785  11.2192  13.9903
    15.3914

          k = 0.5556-0.1111 0.7778     band energies (ev):

    -6.8327  -2.3289   0.6599   2.2357   8.4808  10.5789  11.9352  13.1333
    14.2247

          k = 0.4444 0.0000 0.6667     band energies (ev):

    -7.1886  -1.8522   0.8424   2.6677   8.8274  10.3076  10.7940  13.4581
    14.6257

          k = 0.7778-0.1111 1.0000     band energies (ev):

    -6.7346  -2.4476   1.4063   1.6498   7.6788   8.0609  13.4210  15.1298
    16.4054

          k = 0.6667-0.0000 0.8889     band energies (ev):

    -6.6115  -2.5208   0.7436   1.7379   8.0567   9.7243  12.8562  13.1591
    16.0282

          k = 0.5556-0.1111 1.0000     band energies (ev):

    -6.6559  -2.4130   0.7638   1.4706   9.7305  10.0531  10.8426  12.6810
    16.1530

     highest occupied, lowest unoccupied level (ev):     4.7263    5.9238

     iteration #  2     ecut=   100.00 Ry     beta=0.70
     Davidson diagonalization with overlap
     ethr =  1.70E-06,  avg # of iterations =  1.0

     total cpu time spent up to now is    34782.6 secs

          k = 0.0000 0.0000 0.0000     band energies (ev):

    -9.2459   4.7323   4.7323   4.7323   5.9134   9.2535   9.2535   9.2535
    13.1528

          k =-0.1111 0.1111-0.1111     band energies (ev):

[...]
    13.1622

          k =-0.1111 0.1111-0.1111     band energies (ev):

    -9.0977   2.9797   4.5074   4.5074   6.9444   9.5638   9.5638   9.5720
    13.9975

          k =-0.2222 0.2222-0.2222     band energies (ev):

    -8.6767   0.7755   4.0971   4.0971   6.9496  10.0876  10.0876  11.1074
    14.5962

          k =-0.3333 0.3333-0.3333     band energies (ev):

    -8.0613  -1.1310   3.7268   3.7268   6.6011  10.2573  10.2573  12.9521
    14.3916

          k =-0.4444 0.4444-0.4444     band energies (ev):

    -7.5125  -2.3482   3.5208   3.5208   6.3878  10.1854  10.1854  13.3861
    15.6951

          k = 0.0000 0.2222 0.0000     band energies (ev):

    -9.0477   2.9633   4.1376   4.1376   7.5898   8.6411  10.0861  10.0861
    13.8306

          k =-0.1111 0.3333-0.1111     band energies (ev):

    -8.7155   1.2885   3.6649   3.7202   7.9200   8.8557  10.8013  10.9553
    13.3977

          k =-0.2222 0.4444-0.2222     band energies (ev):

    -8.1550  -0.5809   3.1821   3.3181   7.6301   9.6123  11.0723  11.6065
    14.5003

          k =-0.3333 0.5556-0.3333     band energies (ev):

    -7.5474  -2.0065   2.7156   3.1956   7.3800   9.8142  10.8785  12.9493
    15.0368

          k = 0.5556-0.3333 0.5556     band energies (ev):

    -7.3251  -2.4367   2.4563   3.3154   7.3107   9.9202  10.6332  13.8431
    15.6286

          k = 0.4444-0.2222 0.4444     band energies (ev):

    -7.7374  -1.6028   2.4678   3.6466   7.4381  10.1739  10.4652  12.9416
    14.8354

          k = 0.3333-0.1111 0.3333     band energies (ev):

    -8.3635   0.0097   2.7922   4.0997   7.6972  10.1626  10.1698  11.5268
    13.8145

          k = 0.2222-0.0000 0.2222     band energies (ev):

    -8.8573   1.7855   3.5272   4.4794   7.6431   9.4333   9.6761  10.8049
    13.9986

          k = 0.0000 0.4444 0.0000     band energies (ev):

    -8.4786   0.8368   3.1367   3.1367   7.5388   8.8402  11.8348  11.8348
    12.8201

          k =-0.1111 0.5556-0.1111     band energies (ev):

    -7.9987  -0.4351   2.4919   2.7565   7.5890   8.8945  11.7207  12.4837
    14.5066

          k =-0.2222 0.6667-0.2222     band energies (ev):

    -7.4085  -1.6931   1.7144   2.6271   7.6643   9.9466  11.4537  12.3932
    16.2458

          k = 0.6667-0.2222 0.6667     band energies (ev):

    -7.0411  -2.3379   1.1631   2.7728   7.7392  10.6255  12.0103  12.5442
    15.2790

          k = 0.5556-0.1111 0.5556     band energies (ev):

    -7.2647  -1.9463   1.0219   3.1595   8.0056  10.7568  11.5777  12.7488
    14.7224

          k = 0.4444 0.0000 0.4444     band energies (ev):

    -7.8373  -0.9287   1.5026   3.6815   8.2612  10.7892  10.9062  11.2306
    13.7148

          k = 0.0000 0.6667 0.0000     band energies (ev):

    -7.6160  -1.1002   2.3202   2.3202   6.8845   8.0373  13.8436  13.8436
    14.3635

          k =-0.1111 0.7778-0.1111     band energies (ev):

    -7.1119  -1.9505   1.6461   2.1371   7.0857   8.1111  13.5801  14.2702
    16.4527

          k = 0.7778-0.1111 0.7778     band energies (ev):

    -6.7454  -2.4309   0.7767   2.2423   7.2646   9.7002  13.2241  13.8565
    15.5063

          k = 0.6667-0.0000 0.6667     band energies (ev):

    -6.8281  -2.3040   0.4126   2.6150   7.6094  11.5728  12.9560  13.2245
    13.3678

          k = 0.0000 0.8889 0.0000     band energies (ev):

    -6.7713  -2.4963   1.8836   1.8836   6.7007   7.1509  15.7319  15.7319
    16.3967

          k = 0.8889 0.0000 0.8889     band energies (ev):

    -6.6061  -2.6752   1.3545   1.9215   6.9283   7.7416  15.2648  15.4887
    16.2435

          k =-0.2222 0.4444 0.0000     band energies (ev):

    -8.3083   0.1681   2.5056   3.5777   8.4125   8.9149  11.0164  11.5251
    13.8006

          k =-0.3333 0.5556-0.1111     band energies (ev):

    -7.7225  -1.2035   1.8016   3.1626   8.4102   9.6206  10.9887  12.0950
    14.8223

          k = 0.5556-0.3333 0.7778     band energies (ev):

    -7.2059  -2.2134   1.5226   2.8497   8.2865   9.6460  11.7173  12.9277
    15.0767

          k =-0.2222 0.6667 0.0000     band energies (ev):

    -7.4954  -1.3405   1.7298   2.4040   7.9207   8.7452  11.6239  13.7440
    15.3621

          k = 0.6667-0.2222 0.8889     band energies (ev):

    -6.9836  -2.1287   1.0476   2.1158   8.2536   9.8825  11.2194  13.9881
    15.3919

          k = 0.5556-0.1111 0.7778     band energies (ev):

    -6.8273  -2.3353   0.6556   2.2248   8.4861  10.5814  11.9371  13.1321
    14.2224

          k = 0.4444 0.0000 0.6667     band energies (ev):

    -7.1842  -1.8573   0.8377   2.6557   8.8325  10.3084  10.7978  13.4551
    14.6265

          k = 0.7778-0.1111 1.0000     band energies (ev):

    -6.7288  -2.4544   1.3984   1.6403   7.6845   8.0674  13.4207  15.1291
    16.4067

          k = 0.6667-0.0000 0.8889     band energies (ev):

    -6.6052  -2.5284   0.7383   1.7286   8.0626   9.7276  12.8559  13.1592
    16.0271

          k = 0.5556-0.1111 1.0000     band energies (ev):

    -6.6495  -2.4205   0.7589   1.4624   9.7335  10.0571  10.8430  12.6806
    16.1513

     highest occupied, lowest unoccupied level (ev):     4.7066    5.9544

     iteration #  2     ecut=   100.00 Ry     beta=0.70
     Davidson diagonalization with overlap
     ethr =  2.22E-08,  avg # of iterations =  1.0

     total cpu time spent up to now is    66979.0 secs

     End of self-consistent calculation

          k = 0.0000 0.0000 0.0000 (  5065 PWs)   bands (ev):

    -9.2448   4.7084   4.7084   4.7084   5.9547   9.2616   9.2616   9.2616
    13.1628

          k =-0.1111 0.1111-0.1111 (  5089 PWs)   bands (ev):

    -9.0963   2.9809   4.5091   4.5091   6.9449   9.5639   9.5639   9.5725
    13.9981

          k =-0.2222 0.2222-0.2222 (  5138 PWs)   bands (ev):

    -8.6752   0.7765   4.0987   4.0987   6.9499  10.0878  10.0878  11.1084
    14.5968

          k =-0.3333 0.3333-0.3333 (  5135 PWs)   bands (ev):

    -8.0598  -1.1302   3.7283   3.7283   6.6014  10.2576  10.2576  12.9532
    14.3923

          k =-0.4444 0.4444-0.4444 (  5156 PWs)   bands (ev):

    -7.5108  -2.3476   3.5223   3.5223   6.3881  10.1857  10.1857  13.3869
    15.6964

          k = 0.0000 0.2222 0.0000 (  5093 PWs)   bands (ev):

    -9.0464   2.9644   4.1392   4.1392   7.5906   8.6413  10.0864  10.0864
    13.8313

          k =-0.1111 0.3333-0.1111 (  5143 PWs)   bands (ev):

    -8.7140   1.2895   3.6664   3.7217   7.9205   8.8561  10.8017  10.9559
    13.3985

          k =-0.2222 0.4444-0.2222 (  5140 PWs)   bands (ev):

    -8.1534  -0.5801   3.1834   3.3195   7.6306   9.6126  11.0727  11.6074
    14.5012

          k =-0.3333 0.5556-0.3333 (  5156 PWs)   bands (ev):

    -7.5457  -2.0058   2.7169   3.1970   7.3805   9.8145  10.8789  12.9501
    15.0376

          k = 0.5556-0.3333 0.5556 (  5148 PWs)   bands (ev):

    -7.3233  -2.4362   2.4575   3.3168   7.3111   9.9207  10.6335  13.8439
    15.6298

          k = 0.4444-0.2222 0.4444 (  5150 PWs)   bands (ev):

    -7.7358  -1.6021   2.4690   3.6481   7.4385  10.1744  10.4654  12.9425
    14.8361

          k = 0.3333-0.1111 0.3333 (  5128 PWs)   bands (ev):

    -8.3620   0.0106   2.7935   4.1013   7.6976  10.1632  10.1699  11.5276
    13.8151

          k = 0.2222-0.0000 0.2222 (  5106 PWs)   bands (ev):

    -8.8559   1.7866   3.5286   4.4811   7.6435   9.4339   9.6761  10.8054
    13.9993

          k = 0.0000 0.4444 0.0000 (  5125 PWs)   bands (ev):

    -8.4772   0.8378   3.1381   3.1381   7.5391   8.8408  11.8353  11.8353
    12.8210

          k =-0.1111 0.5556-0.1111 (  5136 PWs)   bands (ev):

    -7.9971  -0.4343   2.4931   2.7578   7.5894   8.8951  11.7214  12.4842
    14.5075

          k =-0.2222 0.6667-0.2222 (  5140 PWs)   bands (ev):

    -7.4068  -1.6925   1.7156   2.6284   7.6648   9.9472  11.4545  12.3936
    16.2469

          k = 0.6667-0.2222 0.6667 (  5155 PWs)   bands (ev):

    -7.0393  -2.3374   1.1642   2.7741   7.7397  10.6263  12.0107  12.5449
    15.2798

          k = 0.5556-0.1111 0.5556 (  5147 PWs)   bands (ev):

    -7.2630  -1.9457   1.0230   3.1609   8.0059  10.7576  11.5780  12.7498
    14.7231

          k = 0.4444 0.0000 0.4444 (  5144 PWs)   bands (ev):

    -7.8357  -0.9279   1.5037   3.6830   8.2615  10.7901  10.9063  11.2314
    13.7155

          k = 0.0000 0.6667 0.0000 (  5157 PWs)   bands (ev):

    -7.6144  -1.0995   2.3215   2.3215   6.8849   8.0379  13.8441  13.8441
    14.3647

          k =-0.1111 0.7778-0.1111 (  5144 PWs)   bands (ev):

    -7.1102  -1.9500   1.6473   2.1383   7.0862   8.1117  13.5808  14.2707
    16.4538

          k = 0.7778-0.1111 0.7778 (  5154 PWs)   bands (ev):

    -6.7434  -2.4306   0.7778   2.2436   7.2650   9.7009  13.2248  13.8570
    15.5072

          k = 0.6667-0.0000 0.6667 (  5148 PWs)   bands (ev):

    -6.8261  -2.3036   0.4137   2.6163   7.6098  11.5738  12.9564  13.2255
    13.3682

          k = 0.0000 0.8889 0.0000 (  5137 PWs)   bands (ev):

    -6.7694  -2.4959   1.8848   1.8848   6.7011   7.1514  15.7323  15.7323
    16.3981

          k = 0.8889 0.0000 0.8889 (  5162 PWs)   bands (ev):

    -6.6040  -2.6749   1.3556   1.9227   6.9287   7.7422  15.2654  15.4891
    16.2447

          k =-0.2222 0.4444 0.0000 (  5151 PWs)   bands (ev):

    -8.3068   0.1690   2.5068   3.5792   8.4130   8.9153  11.0170  11.5255
    13.8014

          k =-0.3333 0.5556-0.1111 (  5148 PWs)   bands (ev):

    -7.7209  -1.2028   1.8028   3.1640   8.4107   9.6210  10.9894  12.0955
    14.8232

          k = 0.5556-0.3333 0.7778 (  5165 PWs)   bands (ev):

    -7.2041  -2.2129   1.5237   2.8510   8.2870   9.6465  11.7178  12.9285
    15.0775

          k =-0.2222 0.6667 0.0000 (  5147 PWs)   bands (ev):

    -7.4937  -1.3398   1.7309   2.4052   7.9212   8.7458  11.6246  13.7445
    15.3631

          k = 0.6667-0.2222 0.8889 (  5154 PWs)   bands (ev):

    -6.9818  -2.1282   1.0487   2.1170   8.2542   9.8831  11.2201  13.9886
    15.3929

          k = 0.5556-0.1111 0.7778 (  5157 PWs)   bands (ev):

    -6.8254  -2.3350   0.6567   2.2261   8.4866  10.5821  11.9379  13.1325
    14.2232

          k = 0.4444 0.0000 0.6667 (  5173 PWs)   bands (ev):

    -7.1824  -1.8567   0.8387   2.6570   8.8330  10.3089  10.7986  13.4556
    14.6275

          k = 0.7778-0.1111 1.0000 (  5151 PWs)   bands (ev):

    -6.7269  -2.4540   1.3995   1.6415   7.6850   8.0680  13.4214  15.1296
    16.4078

          k = 0.6667-0.0000 0.8889 (  5142 PWs)   bands (ev):

    -6.6031  -2.5282   0.7394   1.7297   8.0632   9.7283  12.8564  13.1599
    16.0279

          k = 0.5556-0.1111 1.0000 (  5149 PWs)   bands (ev):

    -6.6475  -2.4202   0.7600   1.4635   9.7344  10.0577  10.8435  12.6812
    16.1521

     highest occupied, lowest unoccupied level (ev):     4.7084    5.9547

     convergence has been achieved in   2 iterations
     #### start writing restart_e file for alchemy...
     Calculation (EXX) stopped during iteration #     3
     #### finished writing restart_e

     total energy              =     -17.07686366 Ry
     Harris-Foulkes estimate   =     -17.07686370 Ry
     est. exchange err (dexx)  =       0.00000179 Ry
     - averaged Fock potential =       1.65680631 Ry
     + Fock energy             =      -0.82858126 Ry

     EXX: now go back to refine exchange calculation

     total cpu time spent up to now is    69335.7 secs

     per-process dynamical memory:   830.5 Mb

     Self-consistent Calculation

     iteration #  1     ecut=   100.00 Ry     beta=0.70
     Davidson diagonalization with overlap
     ethr =  2.22E-08,  avg # of iterations =  2.0

     Threshold (ethr) on eigenvalues was too large:
     Diagonalizing with lowered threshold

     Davidson diagonalization with overlap
     ethr =  8.45E-10,  avg # of iterations =  1.0

     total cpu time spent up to now is    89060.3 secs

     End of self-consistent calculation

          k = 0.0000 0.0000 0.0000 (  5065 PWs)   bands (ev):

    -9.2450   4.7055   4.7055   4.7055   5.9594   9.2625   9.2625   9.2625
    13.1643

          k =-0.1111 0.1111-0.1111 (  5089 PWs)   bands (ev):

    -9.0965   2.9805   4.5063   4.5063   6.9476   9.5646   9.5646   9.5731
    13.9993

          k =-0.2222 0.2222-0.2222 (  5138 PWs)   bands (ev):

    -8.6754   0.7765   4.0962   4.0962   6.9526  10.0884  10.0884  11.1088
    14.5967

          k =-0.3333 0.3333-0.3333 (  5135 PWs)   bands (ev):

    -8.0600  -1.1300   3.7259   3.7259   6.6042  10.2582  10.2582  12.9537
    14.3933

          k =-0.4444 0.4444-0.4444 (  5156 PWs)   bands (ev):

    -7.5111  -2.3473   3.5200   3.5200   6.3909  10.1863  10.1863  13.3880
    15.6968

          k = 0.0000 0.2222 0.0000 (  5093 PWs)   bands (ev):

    -9.0466   2.9643   4.1368   4.1368   7.5925   8.6424  10.0869  10.0869
    13.8315

          k =-0.1111 0.3333-0.1111 (  5143 PWs)   bands (ev):

    -8.7142   1.2895   3.6642   3.7198   7.9222   8.8572  10.8020  10.9562
    13.3986

          k =-0.2222 0.4444-0.2222 (  5140 PWs)   bands (ev):

    -8.1537  -0.5799   3.1820   3.3174   7.6322   9.6136  11.0730  11.6077
    14.5015

          k =-0.3333 0.5556-0.3333 (  5156 PWs)   bands (ev):

    -7.5461  -2.0056   2.7156   3.1949   7.3822   9.8153  10.8793  12.9506
    15.0382

          k = 0.5556-0.3333 0.5556 (  5148 PWs)   bands (ev):

    -7.3237  -2.4359   2.4563   3.3146   7.3130   9.9213  10.6341  13.8447
    15.6300

          k = 0.4444-0.2222 0.4444 (  5150 PWs)   bands (ev):

    -7.7361  -1.6018   2.4678   3.6458   7.4405  10.1749  10.4661  12.9430
    14.8359

          k = 0.3333-0.1111 0.3333 (  5128 PWs)   bands (ev):

    -8.3622   0.0107   2.7921   4.0987   7.6997  10.1636  10.1707  11.5281
    13.8150

          k = 0.2222-0.0000 0.2222 (  5106 PWs)   bands (ev):

    -8.8561   1.7866   3.5268   4.4784   7.6459   9.4344   9.6770  10.8058
    13.9991

          k = 0.0000 0.4444 0.0000 (  5125 PWs)   bands (ev):

    -8.4774   0.8380   3.1361   3.1361   7.5406   8.8422  11.8355  11.8355
    12.8212

          k =-0.1111 0.5556-0.1111 (  5136 PWs)   bands (ev):

    -7.9974  -0.4340   2.4917   2.7560   7.5907   8.8963  11.7217  12.4843
    14.5077

          k =-0.2222 0.6667-0.2222 (  5140 PWs)   bands (ev):

    -7.4071  -1.6922   1.7146   2.6266   7.6661   9.9481  11.4547  12.3939
    16.2473

          k = 0.6667-0.2222 0.6667 (  5155 PWs)   bands (ev):

    -7.0397  -2.3371   1.1635   2.7722   7.7412  10.6269  12.0110  12.5452
    15.2802

          k = 0.5556-0.1111 0.5556 (  5147 PWs)   bands (ev):

    -7.2633  -1.9454   1.0223   3.1588   8.0075  10.7581  11.5785  12.7501
    14.7228

          k = 0.4444 0.0000 0.4444 (  5144 PWs)   bands (ev):

    -7.8359  -0.9277   1.5028   3.6806   8.2633  10.7902  10.9071  11.2320
    13.7153

          k = 0.0000 0.6667 0.0000 (  5157 PWs)   bands (ev):

    -7.6147  -1.0991   2.3198   2.3198   6.8864   8.0392  13.8443  13.8443
    14.3650

          k =-0.1111 0.7778-0.1111 (  5144 PWs)   bands (ev):

    -7.1105  -1.9496   1.6461   2.1366   7.0876   8.1128  13.5812  14.2709
    16.4540

          k = 0.7778-0.1111 0.7778 (  5154 PWs)   bands (ev):

    -6.7439  -2.4302   0.7770   2.2419   7.2665   9.7015  13.2252  13.8573
    15.5075

          k = 0.6667-0.0000 0.6667 (  5148 PWs)   bands (ev):

    -6.8266  -2.3032   0.4130   2.6144   7.6113  11.5743  12.9568  13.2255
    13.3689

          k = 0.0000 0.8889 0.0000 (  5137 PWs)   bands (ev):

    -6.7698  -2.4955   1.8832   1.8832   6.7026   7.1529  15.7328  15.7328
    16.3983

          k = 0.8889 0.0000 0.8889 (  5162 PWs)   bands (ev):

    -6.6045  -2.6745   1.3545   1.9211   6.9302   7.7433  15.2660  15.4896
    16.2448

          k =-0.2222 0.4444 0.0000 (  5151 PWs)   bands (ev):

    -8.3071   0.1692   2.5054   3.5771   8.4142   8.9166  11.0173  11.5259
    13.8014

          k =-0.3333 0.5556-0.1111 (  5148 PWs)   bands (ev):

    -7.7212  -1.2026   1.8018   3.1621   8.4120   9.6219  10.9898  12.0958
    14.8232

          k = 0.5556-0.3333 0.7778 (  5165 PWs)   bands (ev):

    -7.2045  -2.2126   1.5229   2.8492   8.2883   9.6472  11.7183  12.9288
    15.0778

          k =-0.2222 0.6667 0.0000 (  5147 PWs)   bands (ev):

    -7.4940  -1.3395   1.7298   2.4036   7.9222   8.7470  11.6250  13.7447
    15.3631

          k = 0.6667-0.2222 0.8889 (  5154 PWs)   bands (ev):

    -6.9822  -2.1279   1.0478   2.1156   8.2552   9.8839  11.2205  13.9890
    15.3930

          k = 0.5556-0.1111 0.7778 (  5157 PWs)   bands (ev):

    -6.8258  -2.3346   0.6560   2.2246   8.4877  10.5827  11.9383  13.1330
    14.2232

          k = 0.4444 0.0000 0.6667 (  5173 PWs)   bands (ev):

    -7.1828  -1.8564   0.8380   2.6554   8.8342  10.3096  10.7991  13.4560
    14.6274

          k = 0.7778-0.1111 1.0000 (  5151 PWs)   bands (ev):

    -6.7273  -2.4536   1.3984   1.6402   7.6861   8.0691  13.4218  15.1301
    16.4078

          k = 0.6667-0.0000 0.8889 (  5142 PWs)   bands (ev):

    -6.6036  -2.5277   0.7386   1.7284   8.0643   9.7289  12.8570  13.1602
    16.0281

          k = 0.5556-0.1111 1.0000 (  5149 PWs)   bands (ev):

    -6.6480  -2.4198   0.7592   1.4624   9.7348  10.0586  10.8441  12.6816
    16.1522

     highest occupied, lowest unoccupied level (ev):     4.7055    5.9594

     convergence has been achieved in   1 iterations
     #### start writing restart_e file for alchemy...
     Calculation (EXX) stopped during iteration #     4
     #### finished writing restart_e

!    total energy              =     -17.07686389 Ry
     Harris-Foulkes estimate   =     -17.07686393 Ry
     est. exchange err (dexx)  =       0.00000003 Ry
     - averaged Fock potential =       1.65723867 Ry
     + Fock energy             =      -0.82865744 Ry

     EXX self-consistency reached

     Writing output data file pwscf.save

     init_run     :      2.48s CPU      2.50s WALL (       1 calls)
     electrons    :  82988.96s CPU  83273.05s WALL (       4 calls)

     Called by init_run:
     wfcinit      :      1.69s CPU      1.70s WALL (       1 calls)
     potinit      :      0.10s CPU      0.10s WALL (       1 calls)

     Called by electrons:
     c_bands      :  82982.89s CPU  83266.93s WALL (      12 calls)
     sum_band     :      5.39s CPU      5.41s WALL (      12 calls)
     v_of_rho     :      0.72s CPU      0.72s WALL (      13 calls)
     mix_rho      :      0.02s CPU      0.03s WALL (      12 calls)

     Called by c_bands:
     init_us_2    :      1.11s CPU      1.13s WALL (    1120 calls)
     cegterg      :  82980.93s CPU  83264.94s WALL (     420 calls)

     Called by sum_band:

     Called by *egterg:
     h_psi        :  82977.92s CPU  83261.89s WALL (    1255 calls)
     g_psi        :      0.06s CPU      0.06s WALL (     800 calls)
     cdiaghg      :      0.58s CPU      0.59s WALL (    1080 calls)

     Called by h_psi:
     add_vuspsi   :      1.69s CPU      1.69s WALL (    1255 calls)

     General routines
     calbec       :      2.72s CPU      2.73s WALL (    1500 calls)
     fft          :      0.28s CPU      0.29s WALL (     138 calls)
     fftw         :     27.41s CPU     27.48s WALL (   22778 calls)
     fftc         :  76005.65s CPU  76260.45s WALL (33808104 calls)
     fftcw        :     16.22s CPU     16.28s WALL (   12154 calls)
     davcio       :      0.00s CPU      0.02s WALL (      35 calls)

     Parallel routines
     fft_scatter  :  19246.09s CPU  19328.26s WALL (33843174 calls)

     EXX routines
     exx_grid     :      0.36s CPU      0.36s WALL (       1 calls)
     exxinit      :     31.92s CPU     32.48s WALL (       4 calls)
     vexx         :  82950.00s CPU  83233.84s WALL (     677 calls)
     exxenergy    :   7836.11s CPU   7859.01s WALL (       7 calls)

     PWSCF        :     1d    1h14m CPU        1d    1h19m WALL


   This run was terminated on:  12:46: 7  25Mar2016            

=------------------------------------------------------------------------------=
   JOB DONE.
=------------------------------------------------------------------------------=
